<?xml version="1.0" encoding="UTF-8"?>

<!-- generated on 2026-04-08T19:24:40.757444+00:00 by Eclipse SUMO sumo 1.26.0
<sumoConfiguration xmlns:xsi="http://www.w3.org/2001/XMLSchema-instance" xsi:noNamespaceSchemaLocation="http://sumo.dlr.de/xsd/sumoConfiguration.xsd">

    <input>
        <net-file value="/Users/edgarp/dev/SUMO_trafic/my-network/osm.net.xml.gz"/>
        <route-files value="/Users/edgarp/dev/SUMO_trafic/my-network/tii_flows.xml,/Users/edgarp/dev/SUMO_trafic/my-network/town_routes.rou_v5_calibrated.xml"/>
        <additional-files value="/Users/edgarp/dev/SUMO_trafic/my-network/Results/full_sim_v5/fixed/edge_collector.add.xml"/>
    </input>

    <output>
        <tripinfo-output value="/Users/edgarp/dev/SUMO_trafic/my-network/Results/full_sim_v5/fixed/tripinfo.xml"/>
        <statistic-output value="/Users/edgarp/dev/SUMO_trafic/my-network/Results/full_sim_v5/fixed/stats.xml"/>
    </output>

    <processing>
        <ignore-route-errors value="true"/>
        <collision.action value="remove"/>
        <time-to-teleport value="60"/>
        <waiting-time-memory value="1000"/>
        <max-depart-delay value="120"/>
        <tls.actuated.jam-threshold value="30"/>
    </processing>

    <routing>
        <device.rerouting.adaptation-steps value="18"/>
        <device.rerouting.adaptation-interval value="10"/>
    </routing>

    <report>
        <no-warnings value="true"/>
        <log value="/Users/edgarp/dev/SUMO_trafic/my-network/Results/full_sim_v5/fixed/sumo.log"/>
        <error-log value="/Users/edgarp/dev/SUMO_trafic/my-network/Results/full_sim_v5/fixed/sumo_err.log"/>
        <duration-log.statistics value="true"/>
    </report>

    <traci_server>
        <remote-port value="52197"/>
    </traci_server>

    <random_number>
        <seed value="42"/>
    </random_number>

</sumoConfiguration>
-->

<meandata xmlns:xsi="http://www.w3.org/2001/XMLSchema-instance" xsi:noNamespaceSchemaLocation="http://sumo.dlr.de/xsd/meandata_file.xsd">
    <interval begin="0.00" end="3600.00" id="hourly_edges">
        <edge id="-1018300044#0" sampledSeconds="12.50" traveltime="0.66" overlapTraveltime="0.89" density="0.18" overlapDensity="0.25" laneDensity="0.18" occupancy="0.09" waitingTime="0.00" timeLoss="0.39" speed="21.46" speedRelative="0.97" departed="0" arrived="0" entered="14" left="14" laneChangedFrom="0" laneChangedTo="0" flow="14.00"/>
        <edge id="-1018306737" sampledSeconds="835.68" traveltime="13.44" overlapTraveltime="14.48" density="1.67" overlapDensity="1.80" laneDensity="1.67" occupancy="0.87" waitingTime="0.00" timeLoss="223.69" speed="9.26" speedRelative="0.67" departed="60" arrived="0" entered="0" left="60" laneChangedFrom="0" laneChangedTo="0" flow="57.63"/>
        <edge id="-105067707#6" sampledSeconds="3192.77" traveltime="27.52" overlapTraveltime="29.14" density="3.95" overlapDensity="4.18" laneDensity="3.95" occupancy="2.01" waitingTime="835.00" timeLoss="1420.79" speed="7.46" speedRelative="0.54" departed="0" arrived="0" entered="110" left="108" laneChangedFrom="0" laneChangedTo="0" flow="109.62"/>
        <edge id="-105068385#0" sampledSeconds="1389.98" traveltime="19.15" overlapTraveltime="20.14" density="1.93" overlapDensity="2.03" laneDensity="1.93" occupancy="0.97" waitingTime="117.00" timeLoss="392.05" speed="9.71" speedRelative="0.70" departed="0" arrived="0" entered="69" left="69" laneChangedFrom="0" laneChangedTo="0" flow="69.00"/>
        <edge id="-105068385#3" sampledSeconds="314.46" traveltime="10.10" overlapTraveltime="10.48" density="0.66" overlapDensity="0.68" laneDensity="0.66" occupancy="0.33" waitingTime="0.00" timeLoss="26.49" speed="12.67" speedRelative="0.91" departed="0" arrived="0" entered="30" left="30" laneChangedFrom="0" laneChangedTo="0" flow="30.00"/>
        <edge id="-1106934175" sampledSeconds="0.00" departed="0" arrived="0" entered="0" left="0" laneChangedFrom="0" laneChangedTo="0"/>
        <edge id="-132608092#2" sampledSeconds="291.31" traveltime="3.97" overlapTraveltime="4.37" density="1.80" overlapDensity="1.94" laneDensity="1.80" occupancy="0.86" waitingTime="0.00" timeLoss="68.38" speed="10.70" speedRelative="0.77" departed="0" arrived="68" entered="68" left="0" laneChangedFrom="0" laneChangedTo="0" flow="68.00"/>
        <edge id="-132608093#5" sampledSeconds="183.14" traveltime="12.08" overlapTraveltime="13.08" density="0.28" overlapDensity="0.30" laneDensity="0.28" occupancy="0.14" waitingTime="26.00" timeLoss="68.36" speed="13.26" speedRelative="0.60" departed="0" arrived="0" entered="14" left="14" laneChangedFrom="0" laneChangedTo="0" flow="14.00"/>
        <edge id="-161176555#1" sampledSeconds="0.00" departed="0" arrived="0" entered="0" left="0" laneChangedFrom="0" laneChangedTo="0"/>
        <edge id="-165655881" sampledSeconds="354.30" traveltime="4.79" overlapTraveltime="5.90" density="2.07" overlapDensity="2.56" laneDensity="1.04" occupancy="0.56" waitingTime="0.00" timeLoss="119.06" speed="7.36" speedRelative="0.53" departed="0" arrived="0" entered="60" left="60" laneChangedFrom="0" laneChangedTo="0" flow="60.00"/>
        <edge id="-197080306#1" sampledSeconds="0.00" departed="0" arrived="0" entered="0" left="0" laneChangedFrom="0" laneChangedTo="0"/>
        <edge id="-269002813" sampledSeconds="2551.76" traveltime="20.32" overlapTraveltime="21.26" density="65.31" overlapDensity="68.35" laneDensity="32.65" occupancy="12.95" waitingTime="2088.00" timeLoss="2406.55" speed="0.72" speedRelative="0.05" departed="0" arrived="0" entered="120" left="120" laneChangedFrom="0" laneChangedTo="0" flow="120.00"/>
        <edge id="-269002814#7" sampledSeconds="2287.74" traveltime="37.70" overlapTraveltime="38.13" density="1.43" overlapDensity="1.45" laneDensity="1.43" occupancy="0.71" waitingTime="0.00" timeLoss="330.77" speed="11.63" speedRelative="0.84" departed="0" arrived="0" entered="60" left="60" laneChangedFrom="0" laneChangedTo="0" flow="60.00"/>
        <edge id="-269097661#0" sampledSeconds="0.00" departed="0" arrived="0" entered="0" left="0" laneChangedFrom="0" laneChangedTo="0"/>
        <edge id="-269097661#1" sampledSeconds="0.00" departed="0" arrived="0" entered="0" left="0" laneChangedFrom="0" laneChangedTo="0"/>
        <edge id="-27405590#1" sampledSeconds="321.07" traveltime="7.47" overlapTraveltime="8.23" density="1.74" overlapDensity="1.92" laneDensity="1.74" occupancy="0.90" waitingTime="127.00" timeLoss="162.83" speed="6.25" speedRelative="0.45" departed="0" arrived="0" entered="39" left="39" laneChangedFrom="0" laneChangedTo="0" flow="39.00"/>
        <edge id="-27405590#6" sampledSeconds="770.49" traveltime="19.38" overlapTraveltime="19.76" density="0.82" overlapDensity="0.83" laneDensity="0.82" occupancy="0.41" waitingTime="0.00" timeLoss="36.17" speed="13.29" speedRelative="0.96" departed="0" arrived="0" entered="39" left="39" laneChangedFrom="0" laneChangedTo="0" flow="39.00"/>
        <edge id="-27405590#7" sampledSeconds="212.16" traveltime="5.07" overlapTraveltime="5.44" density="0.87" overlapDensity="0.93" laneDensity="0.87" occupancy="0.43" waitingTime="0.00" timeLoss="21.83" speed="12.51" speedRelative="0.90" departed="0" arrived="0" entered="39" left="39" laneChangedFrom="0" laneChangedTo="0" flow="39.00"/>
        <edge id="-27405591#0" sampledSeconds="0.00" departed="0" arrived="0" entered="0" left="0" laneChangedFrom="0" laneChangedTo="0"/>
        <edge id="-27405591#4" sampledSeconds="0.00" departed="0" arrived="0" entered="0" left="0" laneChangedFrom="0" laneChangedTo="0"/>
        <edge id="-312085875#3" sampledSeconds="906.15" traveltime="22.66" overlapTraveltime="23.23" density="0.88" overlapDensity="0.90" laneDensity="0.88" occupancy="0.44" waitingTime="0.00" timeLoss="89.35" speed="12.19" speedRelative="0.88" departed="0" arrived="0" entered="39" left="39" laneChangedFrom="0" laneChangedTo="0" flow="39.00"/>
        <edge id="-312085876" sampledSeconds="0.00" departed="0" arrived="0" entered="0" left="0" laneChangedFrom="0" laneChangedTo="0"/>
        <edge id="-312266114#2" sampledSeconds="4808.16" traveltime="39.66" overlapTraveltime="40.75" density="4.34" overlapDensity="4.46" laneDensity="4.34" occupancy="2.20" waitingTime="1601.00" timeLoss="2212.95" speed="7.47" speedRelative="0.54" departed="120" arrived="0" entered="0" left="120" laneChangedFrom="0" laneChangedTo="0" flow="117.96"/>
        <edge id="-55825089" sampledSeconds="1143.95" traveltime="18.09" overlapTraveltime="19.07" density="25.13" overlapDensity="26.48" laneDensity="12.56" occupancy="5.73" waitingTime="887.00" timeLoss="1068.25" speed="0.89" speedRelative="0.06" departed="0" arrived="0" entered="60" left="60" laneChangedFrom="30" laneChangedTo="30" flow="60.00"/>
        <edge id="-55825090" sampledSeconds="285.53" traveltime="6.34" overlapTraveltime="7.32" density="1.90" overlapDensity="2.20" laneDensity="1.90" occupancy="0.99" waitingTime="52.00" timeLoss="167.26" speed="5.61" speedRelative="0.40" departed="0" arrived="0" entered="39" left="39" laneChangedFrom="0" laneChangedTo="0" flow="39.00"/>
        <edge id="-578973707" sampledSeconds="112.71" traveltime="7.81" overlapTraveltime="8.05" density="0.24" overlapDensity="0.25" laneDensity="0.24" occupancy="0.12" waitingTime="0.00" timeLoss="29.77" speed="16.30" speedRelative="0.73" departed="0" arrived="0" entered="14" left="14" laneChangedFrom="0" laneChangedTo="0" flow="14.00"/>
        <edge id="-578973711" sampledSeconds="268.32" traveltime="3.90" overlapTraveltime="4.47" density="2.04" overlapDensity="2.35" laneDensity="1.02" occupancy="0.48" waitingTime="0.00" timeLoss="106.12" speed="8.22" speedRelative="0.59" departed="0" arrived="0" entered="60" left="60" laneChangedFrom="60" laneChangedTo="60" flow="60.00"/>
        <edge id="-617128761" sampledSeconds="0.00" departed="0" arrived="0" entered="0" left="0" laneChangedFrom="0" laneChangedTo="0"/>
        <edge id="-617128762" sampledSeconds="326.08" traveltime="2.29" overlapTraveltime="2.96" density="4.19" overlapDensity="5.43" laneDensity="4.19" occupancy="2.17" waitingTime="0.00" timeLoss="151.38" speed="7.31" speedRelative="0.53" departed="0" arrived="0" entered="110" left="110" laneChangedFrom="0" laneChangedTo="0" flow="110.00"/>
        <edge id="-96489719#3" sampledSeconds="553.93" traveltime="13.27" overlapTraveltime="14.20" density="1.03" overlapDensity="1.10" laneDensity="1.03" occupancy="0.52" waitingTime="12.00" timeLoss="113.71" speed="10.20" speedRelative="0.73" departed="0" arrived="0" entered="39" left="39" laneChangedFrom="0" laneChangedTo="0" flow="39.00"/>
        <edge id="-96489720#1" sampledSeconds="527.92" traveltime="12.92" overlapTraveltime="13.54" density="0.91" overlapDensity="0.95" laneDensity="0.91" occupancy="0.46" waitingTime="0.00" timeLoss="58.48" speed="11.76" speedRelative="0.85" departed="0" arrived="0" entered="39" left="39" laneChangedFrom="0" laneChangedTo="0" flow="39.00"/>
        <edge id="1018300044#0" sampledSeconds="14.47" traveltime="0.72" overlapTraveltime="0.96" density="0.21" overlapDensity="0.28" laneDensity="0.21" occupancy="0.10" waitingTime="0.00" timeLoss="0.46" speed="20.06" speedRelative="0.90" departed="0" arrived="0" entered="15" left="15" laneChangedFrom="0" laneChangedTo="0" flow="15.00"/>
        <edge id="1018300044#1" sampledSeconds="168.68" traveltime="10.30" overlapTraveltime="11.25" density="0.34" overlapDensity="0.37" laneDensity="0.34" occupancy="0.18" waitingTime="29.00" timeLoss="72.73" speed="11.61" speedRelative="0.52" departed="0" arrived="0" entered="15" left="15" laneChangedFrom="0" laneChangedTo="0" flow="15.00"/>
        <edge id="103330669#0" sampledSeconds="2912.30" traveltime="41.04" overlapTraveltime="42.21" density="2.05" overlapDensity="2.11" laneDensity="2.05" occupancy="1.03" waitingTime="503.00" timeLoss="948.65" speed="9.19" speedRelative="0.66" departed="0" arrived="0" entered="69" left="69" laneChangedFrom="0" laneChangedTo="0" flow="69.00"/>
        <edge id="104746986" sampledSeconds="0.00" departed="0" arrived="0" entered="0" left="0" laneChangedFrom="0" laneChangedTo="0"/>
        <edge id="104746989" sampledSeconds="0.00" departed="0" arrived="0" entered="0" left="0" laneChangedFrom="0" laneChangedTo="0"/>
        <edge id="104746990#0" sampledSeconds="317.34" traveltime="10.97" overlapTraveltime="11.37" density="0.66" overlapDensity="0.67" laneDensity="0.66" occupancy="0.32" waitingTime="0.00" timeLoss="33.50" speed="11.94" speedRelative="0.86" departed="0" arrived="28" entered="29" left="0" laneChangedFrom="0" laneChangedTo="0" flow="28.15"/>
        <edge id="105067707#0" sampledSeconds="1926.84" traveltime="17.55" overlapTraveltime="18.01" density="2.46" overlapDensity="2.52" laneDensity="2.46" occupancy="1.23" waitingTime="60.00" timeLoss="240.07" speed="12.05" speedRelative="0.87" departed="0" arrived="0" entered="107" left="107" laneChangedFrom="0" laneChangedTo="0" flow="107.00"/>
        <edge id="105068385#0" sampledSeconds="0.00" departed="0" arrived="0" entered="0" left="0" laneChangedFrom="0" laneChangedTo="0"/>
        <edge id="105068385#2" sampledSeconds="0.00" departed="0" arrived="0" entered="0" left="0" laneChangedFrom="0" laneChangedTo="0"/>
        <edge id="1106934175" sampledSeconds="0.00" departed="0" arrived="0" entered="0" left="0" laneChangedFrom="0" laneChangedTo="0"/>
        <edge id="1281958933#0" sampledSeconds="0.00" departed="0" arrived="0" entered="0" left="0" laneChangedFrom="0" laneChangedTo="0"/>
        <edge id="132608092#0" sampledSeconds="0.00" departed="0" arrived="0" entered="0" left="0" laneChangedFrom="0" laneChangedTo="0"/>
        <edge id="132608093#0" sampledSeconds="174.22" traveltime="11.37" overlapTraveltime="11.61" density="0.28" overlapDensity="0.29" laneDensity="0.28" occupancy="0.14" waitingTime="0.00" timeLoss="49.86" speed="14.79" speedRelative="0.67" departed="0" arrived="0" entered="15" left="15" laneChangedFrom="0" laneChangedTo="0" flow="15.00"/>
        <edge id="147373672#0" sampledSeconds="0.00" departed="0" arrived="0" entered="0" left="0" laneChangedFrom="0" laneChangedTo="0"/>
        <edge id="161176555#0" sampledSeconds="0.00" departed="0" arrived="0" entered="0" left="0" laneChangedFrom="0" laneChangedTo="0"/>
        <edge id="165655877#0" sampledSeconds="1186.99" traveltime="41.35" overlapTraveltime="42.39" density="0.75" overlapDensity="0.76" laneDensity="0.75" occupancy="0.38" waitingTime="109.00" timeLoss="286.19" speed="10.29" speedRelative="0.74" departed="0" arrived="0" entered="28" left="28" laneChangedFrom="0" laneChangedTo="0" flow="28.00"/>
        <edge id="165655881" sampledSeconds="109.94" traveltime="3.53" overlapTraveltime="3.93" density="0.73" overlapDensity="0.81" laneDensity="0.73" occupancy="0.35" waitingTime="0.00" timeLoss="22.94" speed="10.84" speedRelative="0.78" departed="0" arrived="0" entered="28" left="28" laneChangedFrom="0" laneChangedTo="0" flow="28.00"/>
        <edge id="197080306#0" sampledSeconds="0.00" departed="0" arrived="0" entered="0" left="0" laneChangedFrom="0" laneChangedTo="0"/>
        <edge id="197080307" sampledSeconds="0.00" departed="0" arrived="0" entered="0" left="0" laneChangedFrom="0" laneChangedTo="0"/>
        <edge id="269002813" sampledSeconds="99.55" traveltime="0.89" overlapTraveltime="1.29" density="1.81" overlapDensity="2.62" laneDensity="1.81" occupancy="0.89" waitingTime="0.00" timeLoss="12.39" speed="12.03" speedRelative="0.87" departed="0" arrived="0" entered="77" left="77" laneChangedFrom="0" laneChangedTo="0" flow="77.00"/>
        <edge id="269097661#0" sampledSeconds="485.44" traveltime="6.44" overlapTraveltime="7.04" density="1.94" overlapDensity="2.12" laneDensity="1.94" occupancy="0.95" waitingTime="0.00" timeLoss="136.17" speed="9.74" speedRelative="0.70" departed="0" arrived="0" entered="69" left="69" laneChangedFrom="0" laneChangedTo="0" flow="69.00"/>
        <edge id="269097661#1" sampledSeconds="112.79" traveltime="3.06" overlapTraveltime="3.76" density="1.00" overlapDensity="1.23" laneDensity="1.00" occupancy="0.53" waitingTime="0.00" timeLoss="46.65" speed="8.09" speedRelative="0.58" departed="0" arrived="0" entered="30" left="30" laneChangedFrom="0" laneChangedTo="0" flow="30.00"/>
        <edge id="27405590#0" sampledSeconds="0.00" departed="0" arrived="0" entered="0" left="0" laneChangedFrom="0" laneChangedTo="0"/>
        <edge id="27405590#2" sampledSeconds="0.00" departed="0" arrived="0" entered="0" left="0" laneChangedFrom="0" laneChangedTo="0"/>
        <edge id="27405590#7" sampledSeconds="0.00" departed="0" arrived="0" entered="0" left="0" laneChangedFrom="0" laneChangedTo="0"/>
        <edge id="27405591#0" sampledSeconds="181.45" traveltime="2.20" overlapTraveltime="2.59" density="1.72" overlapDensity="2.02" laneDensity="1.72" occupancy="0.83" waitingTime="0.00" timeLoss="30.82" speed="11.56" speedRelative="0.83" departed="0" arrived="0" entered="70" left="70" laneChangedFrom="0" laneChangedTo="0" flow="70.00"/>
        <edge id="27405591#1" sampledSeconds="2798.44" traveltime="39.34" overlapTraveltime="40.26" density="1.50" overlapDensity="1.54" laneDensity="1.50" occupancy="0.76" waitingTime="0.00" timeLoss="211.64" speed="12.67" speedRelative="0.91" departed="0" arrived="0" entered="70" left="69" laneChangedFrom="0" laneChangedTo="0" flow="69.52"/>
        <edge id="277705901" sampledSeconds="0.00" departed="0" arrived="0" entered="0" left="0" laneChangedFrom="0" laneChangedTo="0"/>
        <edge id="277705904" sampledSeconds="0.00" departed="0" arrived="0" entered="0" left="0" laneChangedFrom="0" laneChangedTo="0"/>
        <edge id="312085876" sampledSeconds="0.00" departed="0" arrived="0" entered="0" left="0" laneChangedFrom="0" laneChangedTo="0"/>
        <edge id="55825089" sampledSeconds="42.40" traveltime="1.01" overlapTraveltime="1.41" density="0.74" overlapDensity="1.04" laneDensity="0.74" occupancy="0.36" waitingTime="0.00" timeLoss="6.99" speed="11.55" speedRelative="0.83" departed="0" arrived="0" entered="30" left="30" laneChangedFrom="0" laneChangedTo="0" flow="30.00"/>
        <edge id="55825090" sampledSeconds="601.07" traveltime="7.98" overlapTraveltime="8.73" density="4.31" overlapDensity="4.70" laneDensity="4.31" occupancy="2.19" waitingTime="238.00" timeLoss="397.06" speed="4.64" speedRelative="0.33" departed="0" arrived="0" entered="69" left="68" laneChangedFrom="0" laneChangedTo="0" flow="68.97"/>
        <edge id="578973713#0" sampledSeconds="141.41" traveltime="3.96" overlapTraveltime="4.79" density="1.04" overlapDensity="1.25" laneDensity="0.52" occupancy="0.27" waitingTime="0.00" timeLoss="52.83" speed="7.61" speedRelative="0.55" departed="0" arrived="0" entered="30" left="29" laneChangedFrom="0" laneChangedTo="0" flow="29.72"/>
        <edge id="617128762" sampledSeconds="1617.93" traveltime="14.21" overlapTraveltime="15.12" density="24.17" overlapDensity="25.73" laneDensity="12.08" occupancy="6.15" waitingTime="1162.00" timeLoss="1440.15" speed="1.49" speedRelative="0.11" departed="0" arrived="0" entered="107" left="107" laneChangedFrom="0" laneChangedTo="0" flow="107.00"/>
        <edge id="903454651" sampledSeconds="1801.91" traveltime="23.54" overlapTraveltime="23.93" density="1.65" overlapDensity="1.67" laneDensity="1.65" occupancy="0.82" waitingTime="0.00" timeLoss="130.32" speed="12.74" speedRelative="0.92" departed="0" arrived="75" entered="77" left="0" laneChangedFrom="0" laneChangedTo="0" flow="75.50"/>
        <edge id="96489707#2" sampledSeconds="51.86" traveltime="0.70" overlapTraveltime="1.33" density="1.34" overlapDensity="2.54" laneDensity="1.34" occupancy="0.68" waitingTime="0.00" timeLoss="12.64" speed="8.02" speedRelative="0.36" departed="0" arrived="0" entered="39" left="39" laneChangedFrom="0" laneChangedTo="0" flow="39.00"/>
        <edge id="96489707#3" sampledSeconds="0.00" departed="0" arrived="0" entered="0" left="0" laneChangedFrom="0" laneChangedTo="0"/>
        <edge id="96489711#1" sampledSeconds="35.44" traveltime="0.03" overlapTraveltime="0.91" density="1.88" overlapDensity="49.22" laneDensity="1.88" occupancy="0.95" waitingTime="0.00" timeLoss="9.67" speed="5.72" speedRelative="0.41" departed="0" arrived="0" entered="39" left="39" laneChangedFrom="0" laneChangedTo="0" flow="39.00"/>
        <edge id="96489711#2" sampledSeconds="0.00" departed="0" arrived="0" entered="0" left="0" laneChangedFrom="0" laneChangedTo="0"/>
        <edge id="96489711#3" sampledSeconds="0.00" departed="0" arrived="0" entered="0" left="0" laneChangedFrom="0" laneChangedTo="0"/>
        <edge id="96489719#0" sampledSeconds="0.00" departed="0" arrived="0" entered="0" left="0" laneChangedFrom="0" laneChangedTo="0"/>
        <edge id="96489720#0" sampledSeconds="0.00" departed="0" arrived="0" entered="0" left="0" laneChangedFrom="0" laneChangedTo="0"/>
    </interval>
    <interval begin="3600.00" end="7200.00" id="hourly_edges">
        <edge id="-1018300044#0" sampledSeconds="14.85" traveltime="0.65" overlapTraveltime="0.87" density="0.22" overlapDensity="0.29" laneDensity="0.22" occupancy="0.11" waitingTime="0.00" timeLoss="0.42" speed="21.94" speedRelative="0.99" departed="0" arrived="0" entered="17" left="17" laneChangedFrom="0" laneChangedTo="0" flow="17.00"/>
        <edge id="-1018306737" sampledSeconds="938.59" traveltime="13.34" overlapTraveltime="14.35" density="1.87" overlapDensity="2.02" laneDensity="1.87" occupancy="0.97" waitingTime="0.00" timeLoss="261.78" speed="9.35" speedRelative="0.67" departed="68" arrived="0" entered="0" left="68" laneChangedFrom="0" laneChangedTo="0" flow="65.31"/>
        <edge id="-105067707#6" sampledSeconds="4604.30" traveltime="30.84" overlapTraveltime="32.35" density="5.74" overlapDensity="6.02" laneDensity="5.74" occupancy="2.91" waitingTime="1660.00" timeLoss="2320.02" speed="6.72" speedRelative="0.48" departed="0" arrived="0" entered="142" left="142" laneChangedFrom="0" laneChangedTo="0" flow="142.34"/>
        <edge id="-105068385#0" sampledSeconds="1652.99" traveltime="17.88" overlapTraveltime="18.78" density="2.29" overlapDensity="2.41" laneDensity="2.29" occupancy="1.16" waitingTime="117.00" timeLoss="417.44" speed="10.41" speedRelative="0.75" departed="0" arrived="0" entered="88" left="88" laneChangedFrom="0" laneChangedTo="0" flow="88.00"/>
        <edge id="-105068385#3" sampledSeconds="334.83" traveltime="9.48" overlapTraveltime="9.85" density="0.70" overlapDensity="0.73" laneDensity="0.70" occupancy="0.35" waitingTime="0.00" timeLoss="22.46" speed="13.49" speedRelative="0.97" departed="0" arrived="0" entered="34" left="34" laneChangedFrom="0" laneChangedTo="0" flow="34.00"/>
        <edge id="-1106934175" sampledSeconds="0.00" departed="0" arrived="0" entered="0" left="0" laneChangedFrom="0" laneChangedTo="0"/>
        <edge id="-132608092#2" sampledSeconds="378.49" traveltime="3.99" overlapTraveltime="4.39" density="2.34" overlapDensity="2.52" laneDensity="2.34" occupancy="1.12" waitingTime="0.00" timeLoss="85.23" speed="10.64" speedRelative="0.77" departed="0" arrived="88" entered="88" left="0" laneChangedFrom="0" laneChangedTo="0" flow="88.00"/>
        <edge id="-132608093#5" sampledSeconds="196.41" traveltime="10.79" overlapTraveltime="11.55" density="0.30" overlapDensity="0.32" laneDensity="0.30" occupancy="0.16" waitingTime="23.00" timeLoss="60.20" speed="15.01" speedRelative="0.68" departed="0" arrived="0" entered="17" left="17" laneChangedFrom="0" laneChangedTo="0" flow="17.00"/>
        <edge id="-161176555#1" sampledSeconds="0.00" departed="0" arrived="0" entered="0" left="0" laneChangedFrom="0" laneChangedTo="0"/>
        <edge id="-165655881" sampledSeconds="398.79" traveltime="4.80" overlapTraveltime="5.86" density="2.36" overlapDensity="2.88" laneDensity="1.18" occupancy="0.63" waitingTime="0.00" timeLoss="135.44" speed="7.41" speedRelative="0.53" departed="0" arrived="0" entered="68" left="68" laneChangedFrom="0" laneChangedTo="0" flow="68.00"/>
        <edge id="-197080306#1" sampledSeconds="0.00" departed="0" arrived="0" entered="0" left="0" laneChangedFrom="0" laneChangedTo="0"/>
        <edge id="-269002813" sampledSeconds="3299.61" traveltime="19.21" overlapTraveltime="20.16" density="84.38" overlapDensity="88.39" laneDensity="42.19" occupancy="16.56" waitingTime="2663.00" timeLoss="3101.86" speed="0.76" speedRelative="0.05" departed="0" arrived="0" entered="164" left="164" laneChangedFrom="0" laneChangedTo="0" flow="164.00"/>
        <edge id="-269002814#7" sampledSeconds="2522.33" traveltime="36.68" overlapTraveltime="37.09" density="1.58" overlapDensity="1.60" laneDensity="1.58" occupancy="0.79" waitingTime="0.00" timeLoss="363.67" speed="11.96" speedRelative="0.86" departed="0" arrived="0" entered="68" left="68" laneChangedFrom="0" laneChangedTo="0" flow="68.00"/>
        <edge id="-269097661#0" sampledSeconds="0.00" departed="0" arrived="0" entered="0" left="0" laneChangedFrom="0" laneChangedTo="0"/>
        <edge id="-269097661#1" sampledSeconds="0.00" departed="0" arrived="0" entered="0" left="0" laneChangedFrom="0" laneChangedTo="0"/>
        <edge id="-27405590#1" sampledSeconds="872.51" traveltime="15.15" overlapTraveltime="16.16" density="4.89" overlapDensity="5.22" laneDensity="4.89" occupancy="2.50" waitingTime="532.00" timeLoss="653.79" speed="3.18" speedRelative="0.23" departed="0" arrived="0" entered="54" left="54" laneChangedFrom="0" laneChangedTo="0" flow="54.00"/>
        <edge id="-27405590#6" sampledSeconds="1076.61" traveltime="19.35" overlapTraveltime="19.73" density="1.14" overlapDensity="1.16" laneDensity="1.14" occupancy="0.57" waitingTime="0.00" timeLoss="50.63" speed="13.31" speedRelative="0.96" departed="0" arrived="0" entered="55" left="54" laneChangedFrom="0" laneChangedTo="0" flow="54.58"/>
        <edge id="-27405590#7" sampledSeconds="297.66" traveltime="5.04" overlapTraveltime="5.41" density="1.22" overlapDensity="1.31" laneDensity="1.22" occupancy="0.60" waitingTime="0.00" timeLoss="29.84" speed="12.57" speedRelative="0.91" departed="0" arrived="0" entered="55" left="55" laneChangedFrom="0" laneChangedTo="0" flow="55.00"/>
        <edge id="-27405591#0" sampledSeconds="0.00" departed="0" arrived="0" entered="0" left="0" laneChangedFrom="0" laneChangedTo="0"/>
        <edge id="-27405591#4" sampledSeconds="0.00" departed="0" arrived="0" entered="0" left="0" laneChangedFrom="0" laneChangedTo="0"/>
        <edge id="-312085875#3" sampledSeconds="1232.55" traveltime="22.26" overlapTraveltime="22.83" density="1.20" overlapDensity="1.23" laneDensity="1.20" occupancy="0.60" waitingTime="0.00" timeLoss="126.79" speed="12.41" speedRelative="0.89" departed="0" arrived="0" entered="54" left="54" laneChangedFrom="0" laneChangedTo="0" flow="54.00"/>
        <edge id="-312085876" sampledSeconds="0.00" departed="0" arrived="0" entered="0" left="0" laneChangedFrom="0" laneChangedTo="0"/>
        <edge id="-312266114#2" sampledSeconds="6559.83" traveltime="39.53" overlapTraveltime="40.44" density="5.95" overlapDensity="6.09" laneDensity="5.95" occupancy="3.01" waitingTime="2189.00" timeLoss="2999.50" speed="7.53" speedRelative="0.54" departed="165" arrived="0" entered="0" left="165" laneChangedFrom="0" laneChangedTo="0" flow="162.19"/>
        <edge id="-55825089" sampledSeconds="1035.51" traveltime="14.37" overlapTraveltime="15.23" density="22.63" overlapDensity="23.97" laneDensity="11.31" occupancy="5.09" waitingTime="763.00" timeLoss="951.94" speed="1.12" speedRelative="0.08" departed="0" arrived="0" entered="68" left="68" laneChangedFrom="34" laneChangedTo="34" flow="68.00"/>
        <edge id="-55825090" sampledSeconds="480.88" traveltime="7.76" overlapTraveltime="8.91" density="3.23" overlapDensity="3.70" laneDensity="3.23" occupancy="1.70" waitingTime="140.00" timeLoss="320.90" speed="4.61" speedRelative="0.33" departed="0" arrived="0" entered="54" left="54" laneChangedFrom="0" laneChangedTo="0" flow="54.00"/>
        <edge id="-578973707" sampledSeconds="134.17" traveltime="7.66" overlapTraveltime="7.89" density="0.29" overlapDensity="0.30" laneDensity="0.29" occupancy="0.14" waitingTime="0.00" timeLoss="35.38" speed="16.63" speedRelative="0.75" departed="0" arrived="0" entered="17" left="17" laneChangedFrom="0" laneChangedTo="0" flow="17.00"/>
        <edge id="-578973711" sampledSeconds="300.05" traveltime="3.81" overlapTraveltime="4.41" density="2.27" overlapDensity="2.62" laneDensity="1.13" occupancy="0.54" waitingTime="0.00" timeLoss="121.14" speed="8.33" speedRelative="0.60" departed="0" arrived="0" entered="68" left="68" laneChangedFrom="68" laneChangedTo="68" flow="68.00"/>
        <edge id="-617128761" sampledSeconds="0.00" departed="0" arrived="0" entered="0" left="0" laneChangedFrom="0" laneChangedTo="0"/>
        <edge id="-617128762" sampledSeconds="420.34" traveltime="2.27" overlapTraveltime="2.95" density="5.40" overlapDensity="7.00" laneDensity="5.40" occupancy="2.79" waitingTime="0.00" timeLoss="195.99" speed="7.34" speedRelative="0.53" departed="0" arrived="0" entered="143" left="142" laneChangedFrom="0" laneChangedTo="0" flow="142.51"/>
        <edge id="-96489719#3" sampledSeconds="746.48" traveltime="12.92" overlapTraveltime="13.82" density="1.39" overlapDensity="1.48" laneDensity="1.39" occupancy="0.70" waitingTime="9.00" timeLoss="152.61" speed="10.48" speedRelative="0.75" departed="0" arrived="0" entered="54" left="54" laneChangedFrom="0" laneChangedTo="0" flow="54.00"/>
        <edge id="-96489720#1" sampledSeconds="722.54" traveltime="12.78" overlapTraveltime="13.38" density="1.24" overlapDensity="1.30" laneDensity="1.24" occupancy="0.62" waitingTime="0.00" timeLoss="86.52" speed="11.90" speedRelative="0.86" departed="0" arrived="0" entered="54" left="54" laneChangedFrom="0" laneChangedTo="0" flow="54.00"/>