<?xml version="1.0" encoding="UTF-8"?>

<!-- generated on 2026-04-08T19:24:40.754229+00:00 by Eclipse SUMO sumo 1.26.0
<sumoConfiguration xmlns:xsi="http://www.w3.org/2001/XMLSchema-instance" xsi:noNamespaceSchemaLocation="http://sumo.dlr.de/xsd/sumoConfiguration.xsd">

    <input>
        <net-file value="/Users/edgarp/dev/SUMO_trafic/my-network/osm.net.xml.gz"/>
        <route-files value="/Users/edgarp/dev/SUMO_trafic/my-network/tii_flows.xml,/Users/edgarp/dev/SUMO_trafic/my-network/town_routes.rou_v5_calibrated.xml"/>
        <additional-files value="/Users/edgarp/dev/SUMO_trafic/my-network/Results/full_sim_v5/fixed/edge_collector.add.xml"/>
    </input>

    <output>
        <tripinfo-output value="/Users/edgarp/dev/SUMO_trafic/my-network/Results/full_sim_v5/fixed/tripinfo.xml"/>
        <statistic-output value="/Users/edgarp/dev/SUMO_trafic/my-network/Results/full_sim_v5/fixed/stats.xml"/>
    </output>

    <processing>
        <ignore-route-errors value="true"/>
        <collision.action value="remove"/>
        <time-to-teleport value="60"/>
        <waiting-time-memory value="1000"/>
        <max-depart-delay value="120"/>
        <tls.actuated.jam-threshold value="30"/>
    </processing>

    <routing>
        <device.rerouting.adaptation-steps value="18"/>
        <device.rerouting.adaptation-interval value="10"/>
    </routing>

    <report>
        <no-warnings value="true"/>
        <log value="/Users/edgarp/dev/SUMO_trafic/my-network/Results/full_sim_v5/fixed/sumo.log"/>
        <error-log value="/Users/edgarp/dev/SUMO_trafic/my-network/Results/full_sim_v5/fixed/sumo_err.log"/>
        <duration-log.statistics value="true"/>
    </report>

    <traci_server>
        <remote-port value="52197"/>
    </traci_server>

    <random_number>
        <seed value="42"/>
    </random_number>

</sumoConfiguration>
-->

<tripinfos xmlns:xsi="http://www.w3.org/2001/XMLSchema-instance" xsi:noNamespaceSchemaLocation="http://sumo.dlr.de/xsd/tripinfo_file.xsd">
    <tripinfo id="f3_h0.0" depart="0.00" departLane="-1018306737_0" departPos="5.10" departSpeed="12.24" departDelay="0.00" arrival="155.00" arrivalLane="-132608092#2_0" arrivalPos="41.72" arrivalSpeed="11.70" duration="155.00" routeLength="1400.42" waitingTime="18.00" waitingCount="1" stopTime="0.00" timeLoss="36.88" rerouteNo="0" devices="tripinfo_f3_h0.0" vType="car_town" speedFactor="0.88" vaporized=""/>
    <tripinfo id="f7_h0.0" depart="2.00" departLane="-312266114#2_0" departPos="5.10" departSpeed="6.52" departDelay="2.00" arrival="181.00" arrivalLane="-132608092#2_0" arrivalPos="41.72" arrivalSpeed="14.58" duration="179.00" routeLength="1019.22" waitingTime="85.00" waitingCount="3" stopTime="0.00" timeLoss="114.91" rerouteNo="0" devices="tripinfo_f7_h0.0" vType="car_town" speedFactor="1.16" vaporized=""/>
    <tripinfo id="f4_h0.0" depart="1.00" departLane="-1018306737_0" departPos="5.10" departSpeed="8.79" departDelay="1.00" arrival="199.00" arrivalLane="104746990#0_0" arrivalPos="130.67" arrivalSpeed="12.56" duration="198.00" routeLength="1830.41" waitingTime="24.00" waitingCount="2" stopTime="0.00" timeLoss="61.95" rerouteNo="0" devices="tripinfo_f4_h0.0" vType="car_town" speedFactor="0.93" vaporized=""/>
    <tripinfo id="f2_h0.0" depart="1.00" departLane="-312266114#2_0" departPos="5.10" departSpeed="9.93" departDelay="1.00" arrival="208.00" arrivalLane="903454651_0" arrivalPos="299.86" arrivalSpeed="14.55" duration="207.00" routeLength="1944.89" waitingTime="49.00" waitingCount="2" stopTime="0.00" timeLoss="74.16" rerouteNo="0" devices="tripinfo_f2_h0.0" vType="car_town" speedFactor="1.07" vaporized=""/>
    <tripinfo id="f7_h0.1" depart="92.00" departLane="-312266114#2_0" departPos="5.10" departSpeed="9.01" departDelay="2.00" arrival="231.00" arrivalLane="-132608092#2_0" arrivalPos="41.72" arrivalSpeed="11.61" duration="139.00" routeLength="1019.22" waitingTime="23.00" waitingCount="3" stopTime="0.00" timeLoss="50.63" rerouteNo="0" devices="tripinfo_f7_h0.1" vType="car_town" speedFactor="0.84" vaporized=""/>
    <tripinfo id="f1_h0.0" depart="0.00" departLane="-312266114#2_0" departPos="5.10" departSpeed="13.17" departDelay="0.00" arrival="247.00" arrivalLane="903454651_0" arrivalPos="299.86" arrivalSpeed="12.63" duration="247.00" routeLength="2097.64" waitingTime="51.00" waitingCount="4" stopTime="0.00" timeLoss="85.78" rerouteNo="0" devices="tripinfo_f1_h0.0" vType="car_town" speedFactor="0.95" vaporized=""/>
    <tripinfo id="f2_h0.1" depart="91.00" departLane="-312266114#2_0" departPos="5.10" departSpeed="12.26" departDelay="1.00" arrival="283.00" arrivalLane="903454651_0" arrivalPos="299.86" arrivalSpeed="11.52" duration="192.00" routeLength="1944.89" waitingTime="12.00" waitingCount="1" stopTime="0.00" timeLoss="29.78" rerouteNo="0" devices="tripinfo_f2_h0.1" vType="car_town" speedFactor="0.88" vaporized=""/>
    <tripinfo id="f5_h0.0" depart="2.00" departLane="-1018306737_0" departPos="5.10" departSpeed="4.98" departDelay="2.00" arrival="291.00" arrivalLane="104746990#0_0" arrivalPos="130.67" arrivalSpeed="14.47" duration="289.00" routeLength="2760.46" waitingTime="41.00" waitingCount="4" stopTime="0.00" timeLoss="100.33" rerouteNo="0" devices="tripinfo_f5_h0.0" vType="car_town" speedFactor="1.08" vaporized=""/>
    <tripinfo id="f1_h0.1" depart="90.00" departLane="-312266114#2_0" departPos="5.10" departSpeed="15.72" departDelay="0.00" arrival="310.00" arrivalLane="903454651_0" arrivalPos="299.86" arrivalSpeed="14.55" duration="220.00" routeLength="2097.64" waitingTime="45.00" waitingCount="3" stopTime="0.00" timeLoss="84.38" rerouteNo="0" devices="tripinfo_f1_h0.1" vType="car_town" speedFactor="1.13" vaporized=""/>
    <tripinfo id="f6_h0.0" depart="4.00" departLane="-1018306737_0" departPos="5.10" departSpeed="3.73" departDelay="4.00" arrival="316.00" arrivalLane="-132608092#2_0" arrivalPos="41.72" arrivalSpeed="13.20" duration="312.00" routeLength="3000.13" waitingTime="39.00" waitingCount="5" stopTime="0.00" timeLoss="105.89" rerouteNo="0" devices="tripinfo_f6_h0.0" vType="car_town" speedFactor="1.03" vaporized=""/>
    <tripinfo id="f7_h0.2" depart="182.00" departLane="-312266114#2_0" departPos="5.10" departSpeed="6.71" departDelay="2.00" arrival="331.00" arrivalLane="-132608092#2_0" arrivalPos="41.72" arrivalSpeed="10.48" duration="149.00" routeLength="1019.22" waitingTime="37.00" waitingCount="3" stopTime="0.00" timeLoss="57.26" rerouteNo="0" devices="tripinfo_f7_h0.2" vType="car_town" speedFactor="0.82" vaporized=""/>
    <tripinfo id="f2_h0.2" depart="181.00" departLane="-312266114#2_0" departPos="5.10" departSpeed="11.16" departDelay="1.00" arrival="375.00" arrivalLane="903454651_0" arrivalPos="299.86" arrivalSpeed="13.22" duration="194.00" routeLength="1944.89" waitingTime="27.00" waitingCount="2" stopTime="0.00" timeLoss="50.68" rerouteNo="0" devices="tripinfo_f2_h0.2" vType="car_town" speedFactor="0.99" vaporized=""/>
    <tripinfo id="f3_h0.1" depart="240.00" departLane="-1018306737_0" departPos="5.10" departSpeed="16.16" departDelay="0.00" arrival="406.00" arrivalLane="-132608092#2_0" arrivalPos="41.72" arrivalSpeed="13.60" duration="166.00" routeLength="1400.42" waitingTime="48.00" waitingCount="3" stopTime="0.00" timeLoss="76.17" rerouteNo="0" devices="tripinfo_f3_h0.1" vType="car_town" speedFactor="1.16" vaporized=""/>
    <tripinfo id="f1_h0.2" depart="180.00" departLane="-312266114#2_0" departPos="5.10" departSpeed="13.91" departDelay="0.00" arrival="408.00" arrivalLane="903454651_0" arrivalPos="299.86" arrivalSpeed="12.61" duration="228.00" routeLength="2097.64" waitingTime="45.00" waitingCount="2" stopTime="0.00" timeLoss="74.71" rerouteNo="0" devices="tripinfo_f1_h0.2" vType="car_town" speedFactor="1.00" vaporized=""/>
    <tripinfo id="f7_h0.3" depart="272.00" departLane="-312266114#2_0" departPos="5.10" departSpeed="4.95" departDelay="2.00" arrival="408.00" arrivalLane="-132608092#2_0" arrivalPos="41.72" arrivalSpeed="16.18" duration="136.00" routeLength="1019.22" waitingTime="38.00" waitingCount="2" stopTime="0.00" timeLoss="75.42" rerouteNo="0" devices="tripinfo_f7_h0.3" vType="car_town" speedFactor="1.24" vaporized=""/>
    <tripinfo id="f4_h0.1" depart="241.00" departLane="-1018306737_0" departPos="5.10" departSpeed="13.00" departDelay="1.00" arrival="457.00" arrivalLane="104746990#0_0" arrivalPos="130.67" arrivalSpeed="12.48" duration="216.00" routeLength="1830.41" waitingTime="58.00" waitingCount="2" stopTime="0.00" timeLoss="80.84" rerouteNo="0" devices="tripinfo_f4_h0.1" vType="car_town" speedFactor="0.94" vaporized=""/>
    <tripinfo id="f2_h0.3" depart="271.00" departLane="-312266114#2_0" departPos="5.10" departSpeed="9.08" departDelay="1.00" arrival="493.00" arrivalLane="903454651_0" arrivalPos="299.86" arrivalSpeed="13.72" duration="222.00" routeLength="1944.89" waitingTime="52.00" waitingCount="2" stopTime="0.00" timeLoss="79.13" rerouteNo="0" devices="tripinfo_f2_h0.3" vType="car_town" speedFactor="1.00" vaporized=""/>
    <tripinfo id="f7_h0.4" depart="362.00" departLane="-312266114#2_0" departPos="5.10" departSpeed="8.73" departDelay="2.00" arrival="506.00" arrivalLane="-132608092#2_0" arrivalPos="41.72" arrivalSpeed="13.36" duration="144.00" routeLength="1019.22" waitingTime="41.00" waitingCount="2" stopTime="0.00" timeLoss="72.95" rerouteNo="0" devices="tripinfo_f7_h0.4" vType="car_town" speedFactor="1.05" vaporized=""/>
    <tripinfo id="f5_h0.1" depart="242.00" departLane="-1018306737_0" departPos="5.10" departSpeed="10.10" departDelay="2.00" arrival="544.00" arrivalLane="104746990#0_0" arrivalPos="130.67" arrivalSpeed="13.32" duration="302.00" routeLength="2760.46" waitingTime="50.00" waitingCount="2" stopTime="0.00" timeLoss="95.48" rerouteNo="0" devices="tripinfo_f5_h0.1" vType="car_town" speedFactor="0.99" vaporized=""/>
    <tripinfo id="f1_h0.3" depart="270.00" departLane="-312266114#2_0" departPos="5.10" departSpeed="12.18" departDelay="0.00" arrival="553.00" arrivalLane="903454651_0" arrivalPos="299.86" arrivalSpeed="11.15" duration="283.00" routeLength="2097.64" waitingTime="70.00" waitingCount="3" stopTime="0.00" timeLoss="106.94" rerouteNo="0" devices="tripinfo_f1_h0.3" vType="car_town" speedFactor="0.88" vaporized=""/>
    <tripinfo id="f6_h0.1" depart="243.00" departLane="-1018306737_0" departPos="5.10" departSpeed="5.19" departDelay="3.00" arrival="566.00" arrivalLane="-132608092#2_0" arrivalPos="41.72" arrivalSpeed="13.80" duration="323.00" routeLength="3000.13" waitingTime="55.00" waitingCount="3" stopTime="0.00" timeLoss="134.74" rerouteNo="0" devices="tripinfo_f6_h0.1" vType="car_town" speedFactor="1.13" vaporized=""/>
    <tripinfo id="f7_h0.5" depart="452.00" departLane="-312266114#2_0" departPos="5.10" departSpeed="8.60" departDelay="2.00" arrival="581.00" arrivalLane="-132608092#2_0" arrivalPos="41.72" arrivalSpeed="14.19" duration="129.00" routeLength="1019.22" waitingTime="32.00" waitingCount="1" stopTime="0.00" timeLoss="59.68" rerouteNo="0" devices="tripinfo_f7_h0.5" vType="car_town" speedFactor="1.08" vaporized=""/>
    <tripinfo id="f2_h0.4" depart="361.00" departLane="-312266114#2_0" departPos="5.10" departSpeed="11.71" departDelay="1.00" arrival="589.00" arrivalLane="903454651_0" arrivalPos="299.86" arrivalSpeed="10.93" duration="228.00" routeLength="1944.89" waitingTime="42.00" waitingCount="2" stopTime="0.00" timeLoss="65.19" rerouteNo="0" devices="tripinfo_f2_h0.4" vType="car_town" speedFactor="0.87" vaporized=""/>
    <tripinfo id="f1_h0.4" depart="360.00" departLane="-312266114#2_0" departPos="5.10" departSpeed="15.22" departDelay="0.00" arrival="591.00" arrivalLane="903454651_0" arrivalPos="299.86" arrivalSpeed="14.47" duration="231.00" routeLength="2097.64" waitingTime="45.00" waitingCount="4" stopTime="0.00" timeLoss="90.87" rerouteNo="0" devices="tripinfo_f1_h0.4" vType="car_town" speedFactor="1.10" vaporized=""/>
    <tripinfo id="f2_h0.5" depart="451.00" departLane="-312266114#2_0" departPos="5.10" departSpeed="12.04" departDelay="1.00" arrival="678.00" arrivalLane="903454651_0" arrivalPos="299.86" arrivalSpeed="13.12" duration="227.00" routeLength="1944.89" waitingTime="53.00" waitingCount="2" stopTime="0.00" timeLoss="79.83" rerouteNo="0" devices="tripinfo_f2_h0.5" vType="car_town" speedFactor="0.97" vaporized=""/>
    <tripinfo id="f1_h0.5" depart="450.00" departLane="-312266114#2_0" departPos="5.10" departSpeed="15.57" departDelay="0.00" arrival="679.00" arrivalLane="903454651_0" arrivalPos="299.86" arrivalSpeed="14.48" duration="229.00" routeLength="2097.64" waitingTime="42.00" waitingCount="4" stopTime="0.00" timeLoss="92.56" rerouteNo="0" devices="tripinfo_f1_h0.5" vType="car_town" speedFactor="1.12" vaporized=""/>
    <tripinfo id="f3_h0.2" depart="480.00" departLane="-1018306737_0" departPos="5.10" departSpeed="13.05" departDelay="0.00" arrival="681.00" arrivalLane="-132608092#2_0" arrivalPos="41.72" arrivalSpeed="12.57" duration="201.00" routeLength="1400.42" waitingTime="62.00" waitingCount="4" stopTime="0.00" timeLoss="90.11" rerouteNo="0" devices="tripinfo_f3_h0.2" vType="car_town" speedFactor="0.94" vaporized=""/>
    <tripinfo id="f7_h0.6" depart="542.00" departLane="-312266114#2_0" departPos="5.10" departSpeed="5.88" departDelay="2.00" arrival="707.00" arrivalLane="-132608092#2_0" arrivalPos="41.72" arrivalSpeed="10.17" duration="165.00" routeLength="1019.22" waitingTime="53.00" waitingCount="2" stopTime="0.00" timeLoss="74.15" rerouteNo="0" devices="tripinfo_f7_h0.6" vType="car_town" speedFactor="0.82" vaporized=""/>
    <tripinfo id="f4_h0.2" depart="481.00" departLane="-1018306737_0" departPos="5.10" departSpeed="9.44" departDelay="1.00" arrival="712.00" arrivalLane="104746990#0_0" arrivalPos="130.67" arrivalSpeed="12.27" duration="231.00" routeLength="1830.41" waitingTime="53.00" waitingCount="3" stopTime="0.00" timeLoss="90.70" rerouteNo="0" devices="tripinfo_f4_h0.2" vType="car_town" speedFactor="0.91" vaporized=""/>
    <tripinfo id="f2_h0.6" depart="541.00" departLane="-312266114#2_0" departPos="5.10" departSpeed="10.07" departDelay="1.00" arrival="732.00" arrivalLane="903454651_0" arrivalPos="299.86" arrivalSpeed="13.67" duration="191.00" routeLength="1944.89" waitingTime="36.00" waitingCount="1" stopTime="0.00" timeLoss="58.41" rerouteNo="0" devices="tripinfo_f2_h0.6" vType="car_town" speedFactor="1.08" vaporized=""/>
    <tripinfo id="f7_h0.7" depart="632.00" departLane="-312266114#2_0" departPos="5.10" departSpeed="6.84" departDelay="2.00" arrival="755.00" arrivalLane="-132608092#2_0" arrivalPos="41.72" arrivalSpeed="15.41" duration="123.00" routeLength="1019.22" waitingTime="35.00" waitingCount="2" stopTime="0.00" timeLoss="58.26" rerouteNo="0" devices="tripinfo_f7_h0.7" vType="car_town" speedFactor="1.15" vaporized=""/>
    <tripinfo id="f5_h0.2" depart="482.00" departLane="-1018306737_0" departPos="5.10" departSpeed="4.79" departDelay="2.00" arrival="775.00" arrivalLane="104746990#0_0" arrivalPos="130.67" arrivalSpeed="13.66" duration="293.00" routeLength="2760.46" waitingTime="35.00" waitingCount="3" stopTime="0.00" timeLoss="88.57" rerouteNo="0" devices="tripinfo_f5_h0.2" vType="car_town" speedFactor="1.00" vaporized=""/>
    <tripinfo id="f6_h0.2" depart="484.00" departLane="-1018306737_0" departPos="5.10" departSpeed="2.33" departDelay="4.00" arrival="792.00" arrivalLane="-132608092#2_0" arrivalPos="41.72" arrivalSpeed="13.30" duration="308.00" routeLength="3000.13" waitingTime="34.00" waitingCount="4" stopTime="0.00" timeLoss="111.33" rerouteNo="0" devices="tripinfo_f6_h0.2" vType="car_town" speedFactor="1.08" vaporized=""/>
    <tripinfo id="f1_h0.6" depart="540.00" departLane="-312266114#2_0" departPos="5.10" departSpeed="13.09" departDelay="0.00" arrival="822.00" arrivalLane="903454651_0" arrivalPos="299.86" arrivalSpeed="11.81" duration="282.00" routeLength="2097.64" waitingTime="78.00" waitingCount="3" stopTime="0.00" timeLoss="118.93" rerouteNo="0" devices="tripinfo_f1_h0.6" vType="car_town" speedFactor="0.94" vaporized=""/>
    <tripinfo id="f2_h0.7" depart="631.00" departLane="-312266114#2_0" departPos="5.10" departSpeed="10.38" departDelay="1.00" arrival="823.00" arrivalLane="903454651_0" arrivalPos="299.86" arrivalSpeed="14.52" duration="192.00" routeLength="1944.89" waitingTime="37.00" waitingCount="2" stopTime="0.00" timeLoss="68.27" rerouteNo="0" devices="tripinfo_f2_h0.7" vType="car_town" speedFactor="1.15" vaporized=""/>
    <tripinfo id="f1_h0.7" depart="630.00" departLane="-312266114#2_0" departPos="5.10" departSpeed="14.03" departDelay="0.00" arrival="856.00" arrivalLane="903454651_0" arrivalPos="299.86" arrivalSpeed="12.76" duration="226.00" routeLength="2097.64" waitingTime="41.00" waitingCount="3" stopTime="0.00" timeLoss="74.18" rerouteNo="0" devices="tripinfo_f1_h0.7" vType="car_town" speedFactor="1.01" vaporized=""/>
    <tripinfo id="f7_h0.8" depart="722.00" departLane="-312266114#2_0" departPos="5.10" departSpeed="8.14" departDelay="2.00" arrival="857.00" arrivalLane="-132608092#2_0" arrivalPos="41.72" arrivalSpeed="14.42" duration="135.00" routeLength="1019.22" waitingTime="42.00" waitingCount="2" stopTime="0.00" timeLoss="64.17" rerouteNo="0" devices="tripinfo_f7_h0.8" vType="car_town" speedFactor="1.06" vaporized=""/>
    <tripinfo id="f3_h0.3" depart="720.00" departLane="-1018306737_0" departPos="5.10" departSpeed="12.73" departDelay="0.00" arrival="883.00" arrivalLane="-132608092#2_0" arrivalPos="41.72" arrivalSpeed="12.65" duration="163.00" routeLength="1400.42" waitingTime="26.00" waitingCount="2" stopTime="0.00" timeLoss="48.77" rerouteNo="0" devices="tripinfo_f3_h0.3" vType="car_town" speedFactor="0.92" vaporized=""/>
    <tripinfo id="f4_h0.3" depart="721.00" departLane="-1018306737_0" departPos="5.10" departSpeed="9.80" departDelay="1.00" arrival="915.00" arrivalLane="104746990#0_0" arrivalPos="130.67" arrivalSpeed="11.76" duration="194.00" routeLength="1830.41" waitingTime="16.00" waitingCount="2" stopTime="0.00" timeLoss="45.59" rerouteNo="0" devices="tripinfo_f4_h0.3" vType="car_town" speedFactor="0.86" vaporized=""/>
    <tripinfo id="f2_h0.8" depart="721.00" departLane="-312266114#2_0" departPos="5.10" departSpeed="11.38" departDelay="1.00" arrival="924.00" arrivalLane="903454651_0" arrivalPos="299.86" arrivalSpeed="14.05" duration="203.00" routeLength="1944.89" waitingTime="44.00" waitingCount="2" stopTime="0.00" timeLoss="69.18" rerouteNo="0" devices="tripinfo_f2_h0.8" vType="car_town" speedFactor="1.07" vaporized=""/>
    <tripinfo id="f1_h0.8" depart="720.00" departLane="-312266114#2_0" departPos="5.10" departSpeed="14.75" departDelay="0.00" arrival="956.00" arrivalLane="903454651_0" arrivalPos="299.86" arrivalSpeed="14.25" duration="236.00" routeLength="2097.64" waitingTime="49.00" waitingCount="4" stopTime="0.00" timeLoss="91.16" rerouteNo="0" devices="tripinfo_f1_h0.8" vType="car_town" speedFactor="1.06" vaporized=""/>
    <tripinfo id="f7_h0.9" depart="813.00" departLane="-312266114#2_0" departPos="5.10" departSpeed="9.47" departDelay="3.00" arrival="957.00" arrivalLane="-132608092#2_0" arrivalPos="41.72" arrivalSpeed="13.06" duration="144.00" routeLength="1019.22" waitingTime="40.00" waitingCount="3" stopTime="0.00" timeLoss="68.62" rerouteNo="0" devices="tripinfo_f7_h0.9" vType="car_town" speedFactor="0.99" vaporized=""/>
    <tripinfo id="f2_h0.9" depart="811.00" departLane="-312266114#2_0" departPos="5.10" departSpeed="7.99" departDelay="1.00" arrival="988.00" arrivalLane="903454651_0" arrivalPos="299.86" arrivalSpeed="14.81" duration="177.00" routeLength="1944.89" waitingTime="22.00" waitingCount="2" stopTime="0.00" timeLoss="49.67" rerouteNo="0" devices="tripinfo_f2_h0.9" vType="car_town" speedFactor="1.12" vaporized=""/>
    <tripinfo id="f5_h0.3" depart="722.00" departLane="-1018306737_0" departPos="5.10" departSpeed="4.87" departDelay="2.00" arrival="1000.00" arrivalLane="104746990#0_0" arrivalPos="130.67" arrivalSpeed="12.97" duration="278.00" routeLength="2760.46" waitingTime="14.00" waitingCount="3" stopTime="0.00" timeLoss="63.43" rerouteNo="0" devices="tripinfo_f5_h0.3" vType="car_town" speedFactor="0.95" vaporized=""/>
    <tripinfo id="f6_h0.3" depart="724.00" departLane="-1018306737_0" departPos="5.10" departSpeed="5.67" departDelay="4.00" arrival="1017.00" arrivalLane="-132608092#2_0" arrivalPos="41.72" arrivalSpeed="12.92" duration="293.00" routeLength="3000.13" waitingTime="11.00" waitingCount="2" stopTime="0.00" timeLoss="66.13" rerouteNo="0" devices="tripinfo_f6_h0.3" vType="car_town" speedFactor="0.94" vaporized=""/>
    <tripinfo id="f7_h0.10" depart="903.00" departLane="-312266114#2_0" departPos="5.10" departSpeed="8.57" departDelay="3.00" arrival="1057.00" arrivalLane="-132608092#2_0" arrivalPos="41.72" arrivalSpeed="11.69" duration="154.00" routeLength="1019.22" waitingTime="47.00" waitingCount="2" stopTime="0.00" timeLoss="73.61" rerouteNo="0" devices="tripinfo_f7_h0.10" vType="car_town" speedFactor="0.92" vaporized=""/>
    <tripinfo id="f1_h0.9" depart="810.00" departLane="-312266114#2_0" departPos="5.10" departSpeed="11.49" departDelay="0.00" arrival="1093.00" arrivalLane="903454651_0" arrivalPos="299.86" arrivalSpeed="11.11" duration="283.00" routeLength="2097.64" waitingTime="57.00" waitingCount="5" stopTime="0.00" timeLoss="97.50" rerouteNo="0" devices="tripinfo_f1_h0.9" vType="car_town" speedFactor="0.83" vaporized=""/>
    <tripinfo id="f2_h0.10" depart="901.00" departLane="-312266114#2_0" departPos="5.10" departSpeed="7.65" departDelay="1.00" arrival="1094.00" arrivalLane="903454651_0" arrivalPos="299.86" arrivalSpeed="12.79" duration="193.00" routeLength="1944.89" waitingTime="22.00" waitingCount="1" stopTime="0.00" timeLoss="55.17" rerouteNo="0" devices="tripinfo_f2_h0.10" vType="car_town" speedFactor="1.03" vaporized=""/>
    <tripinfo id="f3_h0.4" depart="960.00" departLane="-1018306737_0" departPos="5.10" departSpeed="14.49" departDelay="0.00" arrival="1132.00" arrivalLane="-132608092#2_0" arrivalPos="41.72" arrivalSpeed="13.96" duration="172.00" routeLength="1400.42" waitingTime="52.00" waitingCount="2" stopTime="0.00" timeLoss="71.91" rerouteNo="0" devices="tripinfo_f3_h0.4" vType="car_town" speedFactor="1.04" vaporized=""/>
    <tripinfo id="f7_h0.11" depart="992.00" departLane="-312266114#2_0" departPos="5.10" departSpeed="7.35" departDelay="2.00" arrival="1134.00" arrivalLane="-132608092#2_0" arrivalPos="41.72" arrivalSpeed="14.40" duration="142.00" routeLength="1019.22" waitingTime="45.00" waitingCount="4" stopTime="0.00" timeLoss="72.13" rerouteNo="0" devices="tripinfo_f7_h0.11" vType="car_town" speedFactor="1.07" vaporized=""/>
    <tripinfo id="f4_h0.4" depart="961.00" departLane="-1018306737_0" departPos="5.10" departSpeed="11.76" departDelay="1.00" arrival="1182.00" arrivalLane="104746990#0_0" arrivalPos="130.67" arrivalSpeed="13.87" duration="221.00" routeLength="1830.41" waitingTime="61.00" waitingCount="4" stopTime="0.00" timeLoss="97.30" rerouteNo="0" devices="tripinfo_f4_h0.4" vType="car_town" speedFactor="1.02" vaporized=""/>
    <tripinfo id="f1_h0.10" depart="900.00" departLane="-312266114#2_0" departPos="5.10" departSpeed="11.77" departDelay="0.00" arrival="1185.00" arrivalLane="903454651_0" arrivalPos="299.86" arrivalSpeed="11.20" duration="285.00" routeLength="2097.64" waitingTime="65.00" waitingCount="4" stopTime="0.00" timeLoss="104.75" rerouteNo="0" devices="tripinfo_f1_h0.10" vType="car_town" speedFactor="0.85" vaporized=""/>
    <tripinfo id="f2_h0.11" depart="991.00" departLane="-312266114#2_0" departPos="5.10" departSpeed="11.39" departDelay="1.00" arrival="1187.00" arrivalLane="903454651_0" arrivalPos="299.86" arrivalSpeed="14.55" duration="196.00" routeLength="1944.89" waitingTime="32.00" waitingCount="2" stopTime="0.00" timeLoss="66.57" rerouteNo="0" devices="tripinfo_f2_h0.11" vType="car_town" speedFactor="1.10" vaporized=""/>
    <tripinfo id="f7_h0.12" depart="1082.00" departLane="-312266114#2_0" departPos="5.10" departSpeed="8.95" departDelay="2.00" arrival="1210.00" arrivalLane="-132608092#2_0" arrivalPos="41.72" arrivalSpeed="16.21" duration="128.00" routeLength="1019.22" waitingTime="33.00" waitingCount="2" stopTime="0.00" timeLoss="66.28" rerouteNo="0" devices="tripinfo_f7_h0.12" vType="car_town" speedFactor="1.21" vaporized=""/>
    <tripinfo id="f5_h0.4" depart="962.00" departLane="-1018306737_0" departPos="5.10" departSpeed="8.79" departDelay="2.00" arrival="1253.00" arrivalLane="104746990#0_0" arrivalPos="130.67" arrivalSpeed="15.54" duration="291.00" routeLength="2760.46" waitingTime="59.00" waitingCount="4" stopTime="0.00" timeLoss="111.27" rerouteNo="0" devices="tripinfo_f5_h0.4" vType="car_town" speedFactor="1.14" vaporized=""/>
    <tripinfo id="f1_h0.11" depart="990.00" departLane="-312266114#2_0" departPos="5.10" departSpeed="14.63" departDelay="0.00" arrival="1267.00" arrivalLane="903454651_0" arrivalPos="299.86" arrivalSpeed="13.94" duration="277.00" routeLength="2097.64" waitingTime="81.00" waitingCount="4" stopTime="0.00" timeLoss="131.32" rerouteNo="0" devices="tripinfo_f1_h0.11" vType="car_town" speedFactor="1.05" vaporized=""/>
    <tripinfo id="f6_h0.4" depart="963.00" departLane="-1018306737_0" departPos="5.10" departSpeed="4.19" departDelay="3.00" arrival="1271.00" arrivalLane="-132608092#2_0" arrivalPos="41.72" arrivalSpeed="11.39" duration="308.00" routeLength="3000.13" waitingTime="33.00" waitingCount="2" stopTime="0.00" timeLoss="73.61" rerouteNo="0" devices="tripinfo_f6_h0.4" vType="car_town" speedFactor="0.91" vaporized=""/>
    <tripinfo id="f2_h0.12" depart="1081.00" departLane="-312266114#2_0" departPos="5.10" departSpeed="12.11" departDelay="1.00" arrival="1310.00" arrivalLane="903454651_0" arrivalPos="299.86" arrivalSpeed="11.17" duration="229.00" routeLength="1944.89" waitingTime="43.00" waitingCount="2" stopTime="0.00" timeLoss="64.53" rerouteNo="0" devices="tripinfo_f2_h0.12" vType="car_town" speedFactor="0.87" vaporized=""/>
    <tripinfo id="f7_h0.13" depart="1172.00" departLane="-312266114#2_0" departPos="5.10" departSpeed="6.77" departDelay="2.00" arrival="1310.00" arrivalLane="-132608092#2_0" arrivalPos="41.72" arrivalSpeed="11.30" duration="138.00" routeLength="1019.22" waitingTime="31.00" waitingCount="2" stopTime="0.00" timeLoss="53.04" rerouteNo="0" devices="tripinfo_f7_h0.13" vType="car_town" speedFactor="0.88" vaporized=""/>
    <tripinfo id="f1_h0.12" depart="1080.00" departLane="-312266114#2_0" departPos="5.10" departSpeed="15.79" departDelay="0.00" arrival="1311.00" arrivalLane="903454651_0" arrivalPos="299.86" arrivalSpeed="13.83" duration="231.00" routeLength="2097.64" waitingTime="49.00" waitingCount="4" stopTime="0.00" timeLoss="96.24" rerouteNo="0" devices="tripinfo_f1_h0.12" vType="car_town" speedFactor="1.14" vaporized=""/>
    <tripinfo id="f2_h0.13" depart="1171.00" departLane="-312266114#2_0" departPos="5.10" departSpeed="10.57" departDelay="1.00" arrival="1396.00" arrivalLane="903454651_0" arrivalPos="299.86" arrivalSpeed="12.81" duration="225.00" routeLength="1944.89" waitingTime="52.00" waitingCount="2" stopTime="0.00" timeLoss="73.32" rerouteNo="0" devices="tripinfo_f2_h0.13" vType="car_town" speedFactor="0.94" vaporized=""/>
    <tripinfo id="f1_h0.13" depart="1170.00" departLane="-312266114#2_0" departPos="5.10" departSpeed="13.50" departDelay="0.00" arrival="1398.00" arrivalLane="903454651_0" arrivalPos="299.86" arrivalSpeed="12.40" duration="228.00" routeLength="2097.64" waitingTime="37.00" waitingCount="3" stopTime="0.00" timeLoss="70.46" rerouteNo="0" devices="tripinfo_f1_h0.13" vType="car_town" speedFactor="0.97" vaporized=""/>
    <tripinfo id="f3_h0.5" depart="1200.00" departLane="-1018306737_0" departPos="5.10" departSpeed="12.17" departDelay="0.00" arrival="1411.00" arrivalLane="-132608092#2_0" arrivalPos="41.72" arrivalSpeed="10.91" duration="211.00" routeLength="1400.42" waitingTime="61.00" waitingCount="4" stopTime="0.00" timeLoss="92.49" rerouteNo="0" devices="tripinfo_f3_h0.5" vType="car_town" speedFactor="0.88" vaporized=""/>
    <tripinfo id="f7_h0.14" depart="1262.00" departLane="-312266114#2_0" departPos="5.10" departSpeed="4.68" departDelay="2.00" arrival="1435.00" arrivalLane="-132608092#2_0" arrivalPos="41.72" arrivalSpeed="14.19" duration="173.00" routeLength="1019.22" waitingTime="67.00" waitingCount="4" stopTime="0.00" timeLoss="104.76" rerouteNo="0" devices="tripinfo_f7_h0.14" vType="car_town" speedFactor="1.09" vaporized=""/>
    <tripinfo id="f4_h0.5" depart="1201.00" departLane="-1018306737_0" departPos="5.10" departSpeed="9.10" departDelay="1.00" arrival="1439.00" arrivalLane="104746990#0_0" arrivalPos="130.67" arrivalSpeed="15.80" duration="238.00" routeLength="1830.41" waitingTime="60.00" waitingCount="3" stopTime="0.00" timeLoss="128.63" rerouteNo="0" devices="tripinfo_f4_h0.5" vType="car_town" speedFactor="1.16" vaporized=""/>
    <tripinfo id="f2_h0.14" depart="1261.00" departLane="-312266114#2_0" departPos="5.10" departSpeed="9.40" departDelay="1.00" arrival="1452.00" arrivalLane="903454651_0" arrivalPos="299.86" arrivalSpeed="13.45" duration="191.00" routeLength="1944.89" waitingTime="32.00" waitingCount="1" stopTime="0.00" timeLoss="54.65" rerouteNo="0" devices="tripinfo_f2_h0.14" vType="car_town" speedFactor="1.05" vaporized=""/>
    <tripinfo id="f5_h0.5" depart="1202.00" departLane="-1018306737_0" departPos="5.10" departSpeed="4.56" departDelay="2.00" arrival="1483.00" arrivalLane="104746990#0_0" arrivalPos="130.67" arrivalSpeed="13.83" duration="281.00" routeLength="2760.46" waitingTime="34.00" waitingCount="3" stopTime="0.00" timeLoss="92.00" rerouteNo="0" devices="tripinfo_f5_h0.5" vType="car_town" speedFactor="1.08" vaporized=""/>