<?xml version="1.0" encoding="UTF-8"?>

<!-- generated on 2026-04-08T19:25:29.640875+00:00 by Eclipse SUMO sumo 1.26.0
<sumoConfiguration xmlns:xsi="http://www.w3.org/2001/XMLSchema-instance" xsi:noNamespaceSchemaLocation="http://sumo.dlr.de/xsd/sumoConfiguration.xsd">

    <input>
        <net-file value="/Users/edgarp/dev/SUMO_trafic/my-network/osm.net.xml.gz"/>
        <route-files value="/Users/edgarp/dev/SUMO_trafic/my-network/tii_flows.xml,/Users/edgarp/dev/SUMO_trafic/my-network/town_routes.rou_v5_calibrated.xml"/>
        <additional-files value="/Users/edgarp/dev/SUMO_trafic/my-network/Results/full_sim_v5/mappo/edge_collector.add.xml"/>
    </input>

    <output>
        <tripinfo-output value="/Users/edgarp/dev/SUMO_trafic/my-network/Results/full_sim_v5/mappo/tripinfo.xml"/>
        <statistic-output value="/Users/edgarp/dev/SUMO_trafic/my-network/Results/full_sim_v5/mappo/stats.xml"/>
    </output>

    <processing>
        <ignore-route-errors value="true"/>
        <collision.action value="remove"/>
        <time-to-teleport value="60"/>
        <waiting-time-memory value="1000"/>
        <max-depart-delay value="120"/>
        <tls.actuated.jam-threshold value="30"/>
    </processing>

    <routing>
        <device.rerouting.adaptation-steps value="18"/>
        <device.rerouting.adaptation-interval value="10"/>
    </routing>

    <report>
        <no-warnings value="true"/>
        <log value="/Users/edgarp/dev/SUMO_trafic/my-network/Results/full_sim_v5/mappo/sumo.log"/>
        <error-log value="/Users/edgarp/dev/SUMO_trafic/my-network/Results/full_sim_v5/mappo/sumo_err.log"/>
        <duration-log.statistics value="true"/>
    </report>

    <traci_server>
        <remote-port value="52212"/>
    </traci_server>

    <random_number>
        <seed value="42"/>
    </random_number>

</sumoConfiguration>
-->

<meandata xmlns:xsi="http://www.w3.org/2001/XMLSchema-instance" xsi:noNamespaceSchemaLocation="http://sumo.dlr.de/xsd/meandata_file.xsd">
    <interval begin="0.00" end="3600.00" id="hourly_edges">
        <edge id="-1018300044#0" sampledSeconds="12.58" traveltime="0.66" overlapTraveltime="0.90" density="0.18" overlapDensity="0.25" laneDensity="0.18" occupancy="0.09" waitingTime="0.00" timeLoss="0.48" speed="21.32" speedRelative="0.96" departed="0" arrived="0" entered="14" left="14" laneChangedFrom="0" laneChangedTo="0" flow="14.00"/>
        <edge id="-1018306737" sampledSeconds="831.93" traveltime="13.35" overlapTraveltime="14.41" density="1.66" overlapDensity="1.79" laneDensity="1.66" occupancy="0.86" waitingTime="0.00" timeLoss="222.84" speed="9.30" speedRelative="0.67" departed="60" arrived="0" entered="0" left="60" laneChangedFrom="0" laneChangedTo="0" flow="57.63"/>
        <edge id="-105067707#6" sampledSeconds="2419.51" traveltime="20.80" overlapTraveltime="22.00" density="2.99" overlapDensity="3.16" laneDensity="2.99" occupancy="1.52" waitingTime="224.00" timeLoss="640.07" speed="9.88" speedRelative="0.71" departed="0" arrived="0" entered="110" left="110" laneChangedFrom="0" laneChangedTo="0" flow="110.00"/>
        <edge id="-105068385#0" sampledSeconds="1315.06" traveltime="18.22" overlapTraveltime="19.06" density="1.83" overlapDensity="1.92" laneDensity="1.83" occupancy="0.92" waitingTime="109.00" timeLoss="316.61" speed="10.26" speedRelative="0.74" departed="0" arrived="0" entered="69" left="69" laneChangedFrom="0" laneChangedTo="0" flow="69.00"/>
        <edge id="-105068385#3" sampledSeconds="313.06" traveltime="10.05" overlapTraveltime="10.44" density="0.66" overlapDensity="0.68" laneDensity="0.66" occupancy="0.33" waitingTime="0.00" timeLoss="25.10" speed="12.73" speedRelative="0.92" departed="0" arrived="0" entered="30" left="30" laneChangedFrom="0" laneChangedTo="0" flow="30.00"/>
        <edge id="-1106934175" sampledSeconds="0.00" departed="0" arrived="0" entered="0" left="0" laneChangedFrom="0" laneChangedTo="0"/>
        <edge id="-132608092#2" sampledSeconds="286.14" traveltime="3.91" overlapTraveltime="4.30" density="1.77" overlapDensity="1.91" laneDensity="1.77" occupancy="0.85" waitingTime="0.00" timeLoss="63.73" speed="10.86" speedRelative="0.78" departed="0" arrived="68" entered="68" left="0" laneChangedFrom="0" laneChangedTo="0" flow="68.00"/>
        <edge id="-132608093#5" sampledSeconds="233.59" traveltime="15.32" overlapTraveltime="16.68" density="0.35" overlapDensity="0.39" laneDensity="0.35" occupancy="0.18" waitingTime="57.00" timeLoss="119.04" speed="10.39" speedRelative="0.47" departed="0" arrived="0" entered="14" left="14" laneChangedFrom="0" laneChangedTo="0" flow="14.00"/>
        <edge id="-161176555#1" sampledSeconds="0.00" departed="0" arrived="0" entered="0" left="0" laneChangedFrom="0" laneChangedTo="0"/>
        <edge id="-165655881" sampledSeconds="353.67" traveltime="4.78" overlapTraveltime="5.89" density="2.07" overlapDensity="2.55" laneDensity="1.04" occupancy="0.56" waitingTime="0.00" timeLoss="116.89" speed="7.37" speedRelative="0.53" departed="0" arrived="0" entered="60" left="60" laneChangedFrom="0" laneChangedTo="0" flow="60.00"/>
        <edge id="-197080306#1" sampledSeconds="0.00" departed="0" arrived="0" entered="0" left="0" laneChangedFrom="0" laneChangedTo="0"/>
        <edge id="-269002813" sampledSeconds="817.39" traveltime="5.89" overlapTraveltime="6.81" density="18.93" overlapDensity="21.90" laneDensity="9.47" occupancy="3.93" waitingTime="355.00" timeLoss="671.94" speed="2.26" speedRelative="0.16" departed="0" arrived="0" entered="120" left="120" laneChangedFrom="0" laneChangedTo="0" flow="120.00"/>
        <edge id="-269002814#7" sampledSeconds="2284.88" traveltime="37.66" overlapTraveltime="38.08" density="1.43" overlapDensity="1.45" laneDensity="1.43" occupancy="0.71" waitingTime="0.00" timeLoss="327.91" speed="11.65" speedRelative="0.84" departed="0" arrived="0" entered="60" left="60" laneChangedFrom="0" laneChangedTo="0" flow="60.00"/>
        <edge id="-269097661#0" sampledSeconds="0.00" departed="0" arrived="0" entered="0" left="0" laneChangedFrom="0" laneChangedTo="0"/>
        <edge id="-269097661#1" sampledSeconds="0.00" departed="0" arrived="0" entered="0" left="0" laneChangedFrom="0" laneChangedTo="0"/>
        <edge id="-27405590#1" sampledSeconds="376.67" traveltime="8.41" overlapTraveltime="9.66" density="1.96" overlapDensity="2.25" laneDensity="1.96" occupancy="1.04" waitingTime="102.00" timeLoss="220.09" speed="5.33" speedRelative="0.38" departed="0" arrived="0" entered="39" left="39" laneChangedFrom="0" laneChangedTo="0" flow="39.00"/>
        <edge id="-27405590#6" sampledSeconds="770.64" traveltime="19.39" overlapTraveltime="19.76" density="0.82" overlapDensity="0.83" laneDensity="0.82" occupancy="0.41" waitingTime="0.00" timeLoss="36.32" speed="13.29" speedRelative="0.96" departed="0" arrived="0" entered="39" left="39" laneChangedFrom="0" laneChangedTo="0" flow="39.00"/>
        <edge id="-27405590#7" sampledSeconds="213.22" traveltime="5.04" overlapTraveltime="5.41" density="0.87" overlapDensity="0.94" laneDensity="0.87" occupancy="0.43" waitingTime="0.00" timeLoss="21.27" speed="12.57" speedRelative="0.91" departed="0" arrived="0" entered="40" left="39" laneChangedFrom="0" laneChangedTo="0" flow="39.42"/>
        <edge id="-27405591#0" sampledSeconds="0.00" departed="0" arrived="0" entered="0" left="0" laneChangedFrom="0" laneChangedTo="0"/>
        <edge id="-27405591#4" sampledSeconds="0.00" departed="0" arrived="0" entered="0" left="0" laneChangedFrom="0" laneChangedTo="0"/>
        <edge id="-312085875#3" sampledSeconds="905.18" traveltime="22.62" overlapTraveltime="23.21" density="0.88" overlapDensity="0.90" laneDensity="0.88" occupancy="0.44" waitingTime="0.00" timeLoss="87.93" speed="12.20" speedRelative="0.88" departed="0" arrived="0" entered="39" left="39" laneChangedFrom="0" laneChangedTo="0" flow="39.00"/>
        <edge id="-312085876" sampledSeconds="0.00" departed="0" arrived="0" entered="0" left="0" laneChangedFrom="0" laneChangedTo="0"/>
        <edge id="-312266114#2" sampledSeconds="3428.61" traveltime="28.15" overlapTraveltime="29.06" density="3.08" overlapDensity="3.18" laneDensity="3.08" occupancy="1.57" waitingTime="215.00" timeLoss="833.40" speed="10.47" speedRelative="0.75" departed="120" arrived="0" entered="0" left="120" laneChangedFrom="0" laneChangedTo="0" flow="117.96"/>
        <edge id="-55825089" sampledSeconds="502.22" traveltime="7.29" overlapTraveltime="8.37" density="10.13" overlapDensity="11.63" laneDensity="5.06" occupancy="2.48" waitingTime="232.00" timeLoss="426.54" speed="2.03" speedRelative="0.15" departed="0" arrived="0" entered="60" left="60" laneChangedFrom="30" laneChangedTo="30" flow="60.00"/>
        <edge id="-55825090" sampledSeconds="266.48" traveltime="5.78" overlapTraveltime="6.66" density="1.78" overlapDensity="2.05" laneDensity="1.78" occupancy="0.93" waitingTime="59.00" timeLoss="145.04" speed="6.16" speedRelative="0.44" departed="0" arrived="0" entered="40" left="40" laneChangedFrom="0" laneChangedTo="0" flow="40.00"/>
        <edge id="-578973707" sampledSeconds="114.84" traveltime="7.83" overlapTraveltime="8.07" density="0.25" overlapDensity="0.25" laneDensity="0.25" occupancy="0.12" waitingTime="0.00" timeLoss="30.65" speed="16.27" speedRelative="0.73" departed="0" arrived="0" entered="15" left="14" laneChangedFrom="0" laneChangedTo="0" flow="14.24"/>
        <edge id="-578973711" sampledSeconds="264.73" traveltime="3.87" overlapTraveltime="4.41" density="2.03" overlapDensity="2.32" laneDensity="1.01" occupancy="0.48" waitingTime="0.00" timeLoss="102.54" speed="8.33" speedRelative="0.60" departed="0" arrived="0" entered="60" left="60" laneChangedFrom="60" laneChangedTo="60" flow="60.00"/>
        <edge id="-617128761" sampledSeconds="0.00" departed="0" arrived="0" entered="0" left="0" laneChangedFrom="0" laneChangedTo="0"/>
        <edge id="-617128762" sampledSeconds="321.81" traveltime="2.26" overlapTraveltime="2.93" density="4.14" overlapDensity="5.36" laneDensity="4.14" occupancy="2.13" waitingTime="0.00" timeLoss="147.11" speed="7.41" speedRelative="0.53" departed="0" arrived="0" entered="110" left="110" laneChangedFrom="0" laneChangedTo="0" flow="110.00"/>
        <edge id="-96489719#3" sampledSeconds="539.12" traveltime="12.93" overlapTraveltime="13.82" density="1.00" overlapDensity="1.07" laneDensity="1.00" occupancy="0.50" waitingTime="1.00" timeLoss="98.83" speed="10.48" speedRelative="0.75" departed="0" arrived="0" entered="39" left="39" laneChangedFrom="0" laneChangedTo="0" flow="39.00"/>
        <edge id="-96489720#1" sampledSeconds="540.05" traveltime="12.89" overlapTraveltime="13.50" density="0.93" overlapDensity="0.97" laneDensity="0.93" occupancy="0.47" waitingTime="0.00" timeLoss="57.44" speed="11.79" speedRelative="0.85" departed="0" arrived="0" entered="40" left="40" laneChangedFrom="0" laneChangedTo="0" flow="40.00"/>
        <edge id="1018300044#0" sampledSeconds="14.58" traveltime="0.72" overlapTraveltime="0.97" density="0.21" overlapDensity="0.28" laneDensity="0.21" occupancy="0.10" waitingTime="0.00" timeLoss="0.57" speed="19.91" speedRelative="0.90" departed="0" arrived="0" entered="15" left="15" laneChangedFrom="0" laneChangedTo="0" flow="15.00"/>
        <edge id="1018300044#1" sampledSeconds="173.71" traveltime="10.46" overlapTraveltime="11.58" density="0.35" overlapDensity="0.38" laneDensity="0.35" occupancy="0.18" waitingTime="19.00" timeLoss="77.85" speed="11.28" speedRelative="0.51" departed="0" arrived="0" entered="15" left="15" laneChangedFrom="0" laneChangedTo="0" flow="15.00"/>
        <edge id="103330669#0" sampledSeconds="2468.88" traveltime="34.51" overlapTraveltime="35.52" density="1.74" overlapDensity="1.79" laneDensity="1.74" occupancy="0.88" waitingTime="136.00" timeLoss="489.39" speed="10.92" speedRelative="0.79" departed="0" arrived="0" entered="70" left="69" laneChangedFrom="0" laneChangedTo="0" flow="69.52"/>
        <edge id="104746986" sampledSeconds="0.00" departed="0" arrived="0" entered="0" left="0" laneChangedFrom="0" laneChangedTo="0"/>
        <edge id="104746989" sampledSeconds="0.00" departed="0" arrived="0" entered="0" left="0" laneChangedFrom="0" laneChangedTo="0"/>
        <edge id="104746990#0" sampledSeconds="334.66" traveltime="11.04" overlapTraveltime="11.44" density="0.69" overlapDensity="0.71" laneDensity="0.69" occupancy="0.34" waitingTime="0.00" timeLoss="35.80" speed="11.86" speedRelative="0.85" departed="0" arrived="29" entered="30" left="0" laneChangedFrom="0" laneChangedTo="0" flow="29.43"/>
        <edge id="105067707#0" sampledSeconds="1835.26" traveltime="16.60" overlapTraveltime="16.99" density="2.35" overlapDensity="2.40" laneDensity="2.35" occupancy="1.17" waitingTime="0.00" timeLoss="132.92" speed="12.77" speedRelative="0.92" departed="0" arrived="0" entered="108" left="108" laneChangedFrom="0" laneChangedTo="0" flow="108.00"/>
        <edge id="105068385#0" sampledSeconds="0.00" departed="0" arrived="0" entered="0" left="0" laneChangedFrom="0" laneChangedTo="0"/>
        <edge id="105068385#2" sampledSeconds="0.00" departed="0" arrived="0" entered="0" left="0" laneChangedFrom="0" laneChangedTo="0"/>
        <edge id="1106934175" sampledSeconds="0.00" departed="0" arrived="0" entered="0" left="0" laneChangedFrom="0" laneChangedTo="0"/>
        <edge id="1281958933#0" sampledSeconds="0.00" departed="0" arrived="0" entered="0" left="0" laneChangedFrom="0" laneChangedTo="0"/>
        <edge id="132608092#0" sampledSeconds="0.00" departed="0" arrived="0" entered="0" left="0" laneChangedFrom="0" laneChangedTo="0"/>
        <edge id="132608093#0" sampledSeconds="172.45" traveltime="11.25" overlapTraveltime="11.50" density="0.28" overlapDensity="0.29" laneDensity="0.28" occupancy="0.14" waitingTime="0.00" timeLoss="48.10" speed="14.94" speedRelative="0.67" departed="0" arrived="0" entered="15" left="15" laneChangedFrom="0" laneChangedTo="0" flow="15.00"/>
        <edge id="147373672#0" sampledSeconds="0.00" departed="0" arrived="0" entered="0" left="0" laneChangedFrom="0" laneChangedTo="0"/>
        <edge id="161176555#0" sampledSeconds="0.00" departed="0" arrived="0" entered="0" left="0" laneChangedFrom="0" laneChangedTo="0"/>
        <edge id="165655877#0" sampledSeconds="1183.12" traveltime="38.47" overlapTraveltime="39.44" density="0.74" overlapDensity="0.76" laneDensity="0.74" occupancy="0.37" waitingTime="77.00" timeLoss="227.76" speed="11.06" speedRelative="0.80" departed="0" arrived="0" entered="30" left="30" laneChangedFrom="0" laneChangedTo="0" flow="30.00"/>
        <edge id="165655881" sampledSeconds="119.10" traveltime="3.58" overlapTraveltime="3.97" density="0.79" overlapDensity="0.88" laneDensity="0.79" occupancy="0.38" waitingTime="0.00" timeLoss="26.80" speed="10.72" speedRelative="0.77" departed="0" arrived="0" entered="30" left="30" laneChangedFrom="0" laneChangedTo="0" flow="30.00"/>
        <edge id="197080306#0" sampledSeconds="0.00" departed="0" arrived="0" entered="0" left="0" laneChangedFrom="0" laneChangedTo="0"/>
        <edge id="197080307" sampledSeconds="0.00" departed="0" arrived="0" entered="0" left="0" laneChangedFrom="0" laneChangedTo="0"/>
        <edge id="269002813" sampledSeconds="96.99" traveltime="0.85" overlapTraveltime="1.24" density="1.75" overlapDensity="2.55" laneDensity="1.75" occupancy="0.86" waitingTime="0.00" timeLoss="8.72" speed="12.51" speedRelative="0.90" departed="0" arrived="0" entered="78" left="78" laneChangedFrom="0" laneChangedTo="0" flow="78.00"/>
        <edge id="269097661#0" sampledSeconds="492.62" traveltime="6.46" overlapTraveltime="7.04" density="1.98" overlapDensity="2.15" laneDensity="1.98" occupancy="0.97" waitingTime="0.00" timeLoss="138.61" speed="9.74" speedRelative="0.70" departed="0" arrived="0" entered="70" left="70" laneChangedFrom="0" laneChangedTo="0" flow="70.00"/>
        <edge id="269097661#1" sampledSeconds="109.41" traveltime="2.96" overlapTraveltime="3.65" density="0.97" overlapDensity="1.20" laneDensity="0.97" occupancy="0.51" waitingTime="0.00" timeLoss="43.26" speed="8.34" speedRelative="0.60" departed="0" arrived="0" entered="30" left="30" laneChangedFrom="0" laneChangedTo="0" flow="30.00"/>
        <edge id="27405590#0" sampledSeconds="0.00" departed="0" arrived="0" entered="0" left="0" laneChangedFrom="0" laneChangedTo="0"/>
        <edge id="27405590#2" sampledSeconds="0.00" departed="0" arrived="0" entered="0" left="0" laneChangedFrom="0" laneChangedTo="0"/>
        <edge id="27405590#7" sampledSeconds="0.00" departed="0" arrived="0" entered="0" left="0" laneChangedFrom="0" laneChangedTo="0"/>
        <edge id="27405591#0" sampledSeconds="180.76" traveltime="2.19" overlapTraveltime="2.58" density="1.71" overlapDensity="2.01" laneDensity="1.71" occupancy="0.83" waitingTime="0.00" timeLoss="30.13" speed="11.61" speedRelative="0.84" departed="0" arrived="0" entered="70" left="70" laneChangedFrom="0" laneChangedTo="0" flow="70.00"/>
        <edge id="27405591#1" sampledSeconds="2795.49" traveltime="39.02" overlapTraveltime="39.94" density="1.50" overlapDensity="1.54" laneDensity="1.50" occupancy="0.76" waitingTime="0.00" timeLoss="192.56" speed="12.77" speedRelative="0.92" departed="0" arrived="0" entered="70" left="70" laneChangedFrom="0" laneChangedTo="0" flow="70.00"/>
        <edge id="277705901" sampledSeconds="0.00" departed="0" arrived="0" entered="0" left="0" laneChangedFrom="0" laneChangedTo="0"/>
        <edge id="277705904" sampledSeconds="0.00" departed="0" arrived="0" entered="0" left="0" laneChangedFrom="0" laneChangedTo="0"/>
        <edge id="312085876" sampledSeconds="0.00" departed="0" arrived="0" entered="0" left="0" laneChangedFrom="0" laneChangedTo="0"/>
        <edge id="55825089" sampledSeconds="41.69" traveltime="0.99" overlapTraveltime="1.39" density="0.73" overlapDensity="1.02" laneDensity="0.73" occupancy="0.35" waitingTime="0.00" timeLoss="6.29" speed="11.75" speedRelative="0.85" departed="0" arrived="0" entered="30" left="30" laneChangedFrom="0" laneChangedTo="0" flow="30.00"/>
        <edge id="55825090" sampledSeconds="394.74" traveltime="5.03" overlapTraveltime="5.72" density="2.72" overlapDensity="3.09" laneDensity="2.72" occupancy="1.39" waitingTime="75.00" timeLoss="190.29" speed="7.08" speedRelative="0.51" departed="0" arrived="0" entered="69" left="69" laneChangedFrom="0" laneChangedTo="0" flow="69.00"/>
        <edge id="578973713#0" sampledSeconds="332.50" traveltime="9.91" overlapTraveltime="11.08" density="2.63" overlapDensity="2.94" laneDensity="1.31" occupancy="0.69" waitingTime="145.00" timeLoss="243.29" speed="3.29" speedRelative="0.24" departed="0" arrived="0" entered="30" left="30" laneChangedFrom="0" laneChangedTo="0" flow="30.00"/>
        <edge id="617128762" sampledSeconds="398.24" traveltime="3.05" overlapTraveltime="3.69" density="5.23" overlapDensity="6.33" laneDensity="2.62" occupancy="1.37" waitingTime="99.00" timeLoss="219.02" speed="6.09" speedRelative="0.44" departed="0" arrived="0" entered="108" left="108" laneChangedFrom="0" laneChangedTo="0" flow="108.00"/>
        <edge id="903454651" sampledSeconds="1805.92" traveltime="23.11" overlapTraveltime="23.49" density="1.65" overlapDensity="1.67" laneDensity="1.65" occupancy="0.82" waitingTime="0.00" timeLoss="99.77" speed="12.98" speedRelative="0.93" departed="0" arrived="77" entered="78" left="0" laneChangedFrom="0" laneChangedTo="0" flow="77.09"/>
        <edge id="96489707#2" sampledSeconds="52.02" traveltime="0.71" overlapTraveltime="1.33" density="1.35" overlapDensity="2.55" laneDensity="1.35" occupancy="0.68" waitingTime="0.00" timeLoss="10.69" speed="8.00" speedRelative="0.36" departed="0" arrived="0" entered="39" left="39" laneChangedFrom="0" laneChangedTo="0" flow="39.00"/>
        <edge id="96489707#3" sampledSeconds="0.00" departed="0" arrived="0" entered="0" left="0" laneChangedFrom="0" laneChangedTo="0"/>
        <edge id="96489711#1" sampledSeconds="35.18" traveltime="0.03" overlapTraveltime="0.90" density="1.88" overlapDensity="48.85" laneDensity="1.88" occupancy="0.94" waitingTime="0.00" timeLoss="8.38" speed="5.77" speedRelative="0.42" departed="0" arrived="0" entered="39" left="39" laneChangedFrom="0" laneChangedTo="0" flow="39.00"/>
        <edge id="96489711#2" sampledSeconds="0.00" departed="0" arrived="0" entered="0" left="0" laneChangedFrom="0" laneChangedTo="0"/>
        <edge id="96489711#3" sampledSeconds="0.00" departed="0" arrived="0" entered="0" left="0" laneChangedFrom="0" laneChangedTo="0"/>
        <edge id="96489719#0" sampledSeconds="0.00" departed="0" arrived="0" entered="0" left="0" laneChangedFrom="0" laneChangedTo="0"/>
        <edge id="96489720#0" sampledSeconds="0.00" departed="0" arrived="0" entered="0" left="0" laneChangedFrom="0" laneChangedTo="0"/>
    </interval>
    <interval begin="3600.00" end="7200.00" id="hourly_edges">
        <edge id="-1018300044#0" sampledSeconds="14.80" traveltime="0.64" overlapTraveltime="0.87" density="0.21" overlapDensity="0.29" laneDensity="0.21" occupancy="0.11" waitingTime="0.00" timeLoss="0.38" speed="22.01" speedRelative="0.99" departed="0" arrived="0" entered="17" left="17" laneChangedFrom="0" laneChangedTo="0" flow="17.00"/>
        <edge id="-1018306737" sampledSeconds="937.91" traveltime="13.34" overlapTraveltime="14.34" density="1.88" overlapDensity="2.02" laneDensity="1.88" occupancy="0.97" waitingTime="0.00" timeLoss="263.68" speed="9.35" speedRelative="0.67" departed="68" arrived="0" entered="0" left="68" laneChangedFrom="0" laneChangedTo="0" flow="65.31"/>
        <edge id="-105067707#6" sampledSeconds="3132.21" traveltime="20.50" overlapTraveltime="21.75" density="3.86" overlapDensity="4.10" laneDensity="3.86" occupancy="1.97" waitingTime="245.00" timeLoss="822.10" speed="9.99" speedRelative="0.72" departed="0" arrived="0" entered="144" left="144" laneChangedFrom="0" laneChangedTo="0" flow="144.00"/>
        <edge id="-105068385#0" sampledSeconds="1706.50" traveltime="18.43" overlapTraveltime="19.34" density="2.37" overlapDensity="2.49" laneDensity="2.37" occupancy="1.20" waitingTime="161.00" timeLoss="467.17" speed="10.11" speedRelative="0.73" departed="0" arrived="0" entered="89" left="88" laneChangedFrom="0" laneChangedTo="0" flow="88.23"/>
        <edge id="-105068385#3" sampledSeconds="335.28" traveltime="9.50" overlapTraveltime="9.86" density="0.70" overlapDensity="0.73" laneDensity="0.70" occupancy="0.35" waitingTime="0.00" timeLoss="22.92" speed="13.47" speedRelative="0.97" departed="0" arrived="0" entered="34" left="34" laneChangedFrom="0" laneChangedTo="0" flow="34.00"/>
        <edge id="-1106934175" sampledSeconds="0.00" departed="0" arrived="0" entered="0" left="0" laneChangedFrom="0" laneChangedTo="0"/>
        <edge id="-132608092#2" sampledSeconds="379.32" traveltime="3.97" overlapTraveltime="4.38" density="2.35" overlapDensity="2.53" laneDensity="2.35" occupancy="1.12" waitingTime="0.00" timeLoss="84.63" speed="10.67" speedRelative="0.77" departed="0" arrived="89" entered="89" left="0" laneChangedFrom="0" laneChangedTo="0" flow="89.00"/>
        <edge id="-132608093#5" sampledSeconds="308.53" traveltime="16.63" overlapTraveltime="18.15" density="0.47" overlapDensity="0.51" laneDensity="0.47" occupancy="0.24" waitingTime="90.00" timeLoss="171.75" speed="9.55" speedRelative="0.43" departed="0" arrived="0" entered="17" left="17" laneChangedFrom="0" laneChangedTo="0" flow="17.00"/>
        <edge id="-161176555#1" sampledSeconds="0.00" departed="0" arrived="0" entered="0" left="0" laneChangedFrom="0" laneChangedTo="0"/>
        <edge id="-165655881" sampledSeconds="404.18" traveltime="4.87" overlapTraveltime="5.94" density="2.39" overlapDensity="2.92" laneDensity="1.19" occupancy="0.64" waitingTime="0.00" timeLoss="144.04" speed="7.31" speedRelative="0.53" departed="0" arrived="0" entered="68" left="68" laneChangedFrom="0" laneChangedTo="0" flow="68.00"/>
        <edge id="-197080306#1" sampledSeconds="0.00" departed="0" arrived="0" entered="0" left="0" laneChangedFrom="0" laneChangedTo="0"/>
        <edge id="-269002813" sampledSeconds="1048.36" traveltime="5.43" overlapTraveltime="6.35" density="24.02" overlapDensity="28.08" laneDensity="12.01" occupancy="5.27" waitingTime="428.00" timeLoss="849.24" speed="2.42" speedRelative="0.17" departed="0" arrived="0" entered="165" left="165" laneChangedFrom="0" laneChangedTo="0" flow="165.00"/>
        <edge id="-269002814#7" sampledSeconds="2528.95" traveltime="36.78" overlapTraveltime="37.19" density="1.58" overlapDensity="1.60" laneDensity="1.58" occupancy="0.79" waitingTime="0.00" timeLoss="370.29" speed="11.93" speedRelative="0.86" departed="0" arrived="0" entered="68" left="68" laneChangedFrom="0" laneChangedTo="0" flow="68.00"/>
        <edge id="-269097661#0" sampledSeconds="0.00" departed="0" arrived="0" entered="0" left="0" laneChangedFrom="0" laneChangedTo="0"/>
        <edge id="-269097661#1" sampledSeconds="0.00" departed="0" arrived="0" entered="0" left="0" laneChangedFrom="0" laneChangedTo="0"/>
        <edge id="-27405590#1" sampledSeconds="533.68" traveltime="8.52" overlapTraveltime="9.70" density="2.80" overlapDensity="3.19" laneDensity="2.80" occupancy="1.48" waitingTime="154.00" timeLoss="311.95" speed="5.30" speedRelative="0.38" departed="0" arrived="0" entered="55" left="55" laneChangedFrom="0" laneChangedTo="0" flow="55.00"/>
        <edge id="-27405590#6" sampledSeconds="1084.20" traveltime="19.34" overlapTraveltime="19.71" density="1.15" overlapDensity="1.17" laneDensity="1.15" occupancy="0.57" waitingTime="0.00" timeLoss="50.91" speed="13.32" speedRelative="0.96" departed="0" arrived="0" entered="55" left="55" laneChangedFrom="0" laneChangedTo="0" flow="55.00"/>
        <edge id="-27405590#7" sampledSeconds="295.73" traveltime="5.04" overlapTraveltime="5.42" density="1.21" overlapDensity="1.30" laneDensity="1.21" occupancy="0.60" waitingTime="0.00" timeLoss="29.53" speed="12.57" speedRelative="0.90" departed="0" arrived="0" entered="54" left="55" laneChangedFrom="0" laneChangedTo="0" flow="54.58"/>
        <edge id="-27405591#0" sampledSeconds="0.00" departed="0" arrived="0" entered="0" left="0" laneChangedFrom="0" laneChangedTo="0"/>
        <edge id="-27405591#4" sampledSeconds="0.00" departed="0" arrived="0" entered="0" left="0" laneChangedFrom="0" laneChangedTo="0"/>
        <edge id="-312085875#3" sampledSeconds="1250.77" traveltime="22.19" overlapTraveltime="22.74" density="1.22" overlapDensity="1.25" laneDensity="1.22" occupancy="0.61" waitingTime="0.00" timeLoss="126.31" speed="12.46" speedRelative="0.90" departed="0" arrived="0" entered="55" left="55" laneChangedFrom="0" laneChangedTo="0" flow="55.00"/>
        <edge id="-312085876" sampledSeconds="0.00" departed="0" arrived="0" entered="0" left="0" laneChangedFrom="0" laneChangedTo="0"/>
        <edge id="-312266114#2" sampledSeconds="4744.17" traveltime="28.32" overlapTraveltime="29.24" density="4.26" overlapDensity="4.40" laneDensity="4.26" occupancy="2.17" waitingTime="369.00" timeLoss="1183.63" speed="10.41" speedRelative="0.75" departed="165" arrived="0" entered="0" left="165" laneChangedFrom="0" laneChangedTo="0" flow="162.19"/>
        <edge id="-55825089" sampledSeconds="543.81" traveltime="6.99" overlapTraveltime="8.00" density="11.01" overlapDensity="12.59" laneDensity="5.50" occupancy="2.64" waitingTime="238.00" timeLoss="460.26" speed="2.13" speedRelative="0.15" departed="0" arrived="0" entered="68" left="68" laneChangedFrom="34" laneChangedTo="34" flow="68.00"/>
        <edge id="-55825090" sampledSeconds="358.87" traveltime="5.64" overlapTraveltime="6.54" density="2.39" overlapDensity="2.76" laneDensity="2.39" occupancy="1.25" waitingTime="64.00" timeLoss="196.77" speed="6.28" speedRelative="0.45" departed="0" arrived="0" entered="55" left="54" laneChangedFrom="0" laneChangedTo="0" flow="54.97"/>
        <edge id="-578973707" sampledSeconds="128.66" traveltime="7.45" overlapTraveltime="7.67" density="0.27" overlapDensity="0.28" laneDensity="0.27" occupancy="0.13" waitingTime="0.00" timeLoss="31.11" speed="17.10" speedRelative="0.77" departed="0" arrived="0" entered="16" left="17" laneChangedFrom="0" laneChangedTo="0" flow="16.76"/>
        <edge id="-578973711" sampledSeconds="303.02" traveltime="3.84" overlapTraveltime="4.46" density="2.28" overlapDensity="2.65" laneDensity="1.14" occupancy="0.54" waitingTime="0.00" timeLoss="124.11" speed="8.25" speedRelative="0.59" departed="0" arrived="0" entered="68" left="68" laneChangedFrom="68" laneChangedTo="68" flow="68.00"/>
        <edge id="-617128761" sampledSeconds="0.00" departed="0" arrived="0" entered="0" left="0" laneChangedFrom="0" laneChangedTo="0"/>
        <edge id="-617128762" sampledSeconds="423.56" traveltime="2.26" overlapTraveltime="2.94" density="5.42" overlapDensity="7.05" laneDensity="5.42" occupancy="2.81" waitingTime="0.00" timeLoss="196.75" speed="7.37" speedRelative="0.53" departed="0" arrived="0" entered="144" left="144" laneChangedFrom="0" laneChangedTo="0" flow="144.00"/>
        <edge id="-96489719#3" sampledSeconds="757.14" traveltime="12.89" overlapTraveltime="13.77" density="1.41" overlapDensity="1.50" laneDensity="1.41" occupancy="0.71" waitingTime="8.00" timeLoss="152.37" speed="10.52" speedRelative="0.76" departed="0" arrived="0" entered="55" left="55" laneChangedFrom="0" laneChangedTo="0" flow="55.00"/>
        <edge id="-96489720#1" sampledSeconds="712.38" traveltime="12.58" overlapTraveltime="13.19" density="1.22" overlapDensity="1.28" laneDensity="1.22" occupancy="0.62" waitingTime="0.00" timeLoss="79.15" speed="12.07" speedRelative="0.87" departed="0" arrived="0" entered="54" left="54" laneChangedFrom="0" laneChangedTo="0" flow="54.00"/>