<?xml version="1.0" encoding="UTF-8"?>

<!-- generated on 2026-04-08T19:25:29.638083+00:00 by Eclipse SUMO sumo 1.26.0
<sumoConfiguration xmlns:xsi="http://www.w3.org/2001/XMLSchema-instance" xsi:noNamespaceSchemaLocation="http://sumo.dlr.de/xsd/sumoConfiguration.xsd">

    <input>
        <net-file value="/Users/edgarp/dev/SUMO_trafic/my-network/osm.net.xml.gz"/>
        <route-files value="/Users/edgarp/dev/SUMO_trafic/my-network/tii_flows.xml,/Users/edgarp/dev/SUMO_trafic/my-network/town_routes.rou_v5_calibrated.xml"/>
        <additional-files value="/Users/edgarp/dev/SUMO_trafic/my-network/Results/full_sim_v5/mappo/edge_collector.add.xml"/>
    </input>

    <output>
        <tripinfo-output value="/Users/edgarp/dev/SUMO_trafic/my-network/Results/full_sim_v5/mappo/tripinfo.xml"/>
        <statistic-output value="/Users/edgarp/dev/SUMO_trafic/my-network/Results/full_sim_v5/mappo/stats.xml"/>
    </output>

    <processing>
        <ignore-route-errors value="true"/>
        <collision.action value="remove"/>
        <time-to-teleport value="60"/>
        <waiting-time-memory value="1000"/>
        <max-depart-delay value="120"/>
        <tls.actuated.jam-threshold value="30"/>
    </processing>

    <routing>
        <device.rerouting.adaptation-steps value="18"/>
        <device.rerouting.adaptation-interval value="10"/>
    </routing>

    <report>
        <no-warnings value="true"/>
        <log value="/Users/edgarp/dev/SUMO_trafic/my-network/Results/full_sim_v5/mappo/sumo.log"/>
        <error-log value="/Users/edgarp/dev/SUMO_trafic/my-network/Results/full_sim_v5/mappo/sumo_err.log"/>
        <duration-log.statistics value="true"/>
    </report>

    <traci_server>
        <remote-port value="52212"/>
    </traci_server>

    <random_number>
        <seed value="42"/>
    </random_number>

</sumoConfiguration>
-->

<tripinfos xmlns:xsi="http://www.w3.org/2001/XMLSchema-instance" xsi:noNamespaceSchemaLocation="http://sumo.dlr.de/xsd/tripinfo_file.xsd">
    <tripinfo id="f7_h0.0" depart="2.00" departLane="-312266114#2_0" departPos="5.10" departSpeed="6.52" departDelay="2.00" arrival="98.00" arrivalLane="-132608092#2_0" arrivalPos="41.72" arrivalSpeed="14.15" duration="96.00" routeLength="1019.22" waitingTime="4.00" waitingCount="2" stopTime="0.00" timeLoss="31.75" rerouteNo="0" devices="tripinfo_f7_h0.0" vType="car_town" speedFactor="1.16" vaporized=""/>
    <tripinfo id="f3_h0.0" depart="0.00" departLane="-1018306737_0" departPos="5.10" departSpeed="12.24" departDelay="0.00" arrival="148.00" arrivalLane="-132608092#2_0" arrivalPos="41.72" arrivalSpeed="11.18" duration="148.00" routeLength="1400.42" waitingTime="9.00" waitingCount="2" stopTime="0.00" timeLoss="30.19" rerouteNo="0" devices="tripinfo_f3_h0.0" vType="car_town" speedFactor="0.88" vaporized=""/>
    <tripinfo id="f2_h0.0" depart="1.00" departLane="-312266114#2_0" departPos="5.10" departSpeed="9.93" departDelay="1.00" arrival="167.00" arrivalLane="903454651_0" arrivalPos="299.86" arrivalSpeed="14.14" duration="166.00" routeLength="1944.89" waitingTime="8.00" waitingCount="2" stopTime="0.00" timeLoss="32.62" rerouteNo="0" devices="tripinfo_f2_h0.0" vType="car_town" speedFactor="1.07" vaporized=""/>
    <tripinfo id="f4_h0.0" depart="1.00" departLane="-1018306737_0" departPos="5.10" departSpeed="8.79" departDelay="1.00" arrival="178.00" arrivalLane="104746990#0_0" arrivalPos="130.67" arrivalSpeed="12.56" duration="177.00" routeLength="1830.41" waitingTime="5.00" waitingCount="2" stopTime="0.00" timeLoss="41.08" rerouteNo="0" devices="tripinfo_f4_h0.0" vType="car_town" speedFactor="0.93" vaporized=""/>
    <tripinfo id="f1_h0.0" depart="0.00" departLane="-312266114#2_0" departPos="5.10" departSpeed="13.17" departDelay="0.00" arrival="188.00" arrivalLane="903454651_0" arrivalPos="299.86" arrivalSpeed="12.63" duration="188.00" routeLength="2097.64" waitingTime="5.00" waitingCount="1" stopTime="0.00" timeLoss="26.25" rerouteNo="0" devices="tripinfo_f1_h0.0" vType="car_town" speedFactor="0.95" vaporized=""/>
    <tripinfo id="f7_h0.1" depart="92.00" departLane="-312266114#2_0" departPos="5.10" departSpeed="8.40" departDelay="2.00" arrival="198.00" arrivalLane="-132608092#2_0" arrivalPos="41.72" arrivalSpeed="11.73" duration="106.00" routeLength="1019.22" waitingTime="4.00" waitingCount="1" stopTime="0.00" timeLoss="17.30" rerouteNo="0" devices="tripinfo_f7_h0.1" vType="car_town" speedFactor="0.84" vaporized=""/>
    <tripinfo id="f5_h0.0" depart="2.00" departLane="-1018306737_0" departPos="5.10" departSpeed="4.98" departDelay="2.00" arrival="244.00" arrivalLane="104746990#0_0" arrivalPos="130.67" arrivalSpeed="14.63" duration="242.00" routeLength="2760.46" waitingTime="3.00" waitingCount="1" stopTime="0.00" timeLoss="53.38" rerouteNo="0" devices="tripinfo_f5_h0.0" vType="car_town" speedFactor="1.08" vaporized=""/>
    <tripinfo id="f2_h0.1" depart="91.00" departLane="-312266114#2_0" departPos="5.10" departSpeed="12.26" departDelay="1.00" arrival="268.00" arrivalLane="903454651_0" arrivalPos="299.86" arrivalSpeed="11.19" duration="177.00" routeLength="1944.89" waitingTime="0.00" waitingCount="0" stopTime="0.00" timeLoss="15.80" rerouteNo="0" devices="tripinfo_f2_h0.1" vType="car_town" speedFactor="0.88" vaporized=""/>
    <tripinfo id="f1_h0.1" depart="90.00" departLane="-312266114#2_0" departPos="5.10" departSpeed="15.72" departDelay="0.00" arrival="270.00" arrivalLane="903454651_0" arrivalPos="299.86" arrivalSpeed="14.76" duration="180.00" routeLength="2097.64" waitingTime="8.00" waitingCount="3" stopTime="0.00" timeLoss="44.29" rerouteNo="0" devices="tripinfo_f1_h0.1" vType="car_town" speedFactor="1.13" vaporized=""/>
    <tripinfo id="f7_h0.2" depart="182.00" departLane="-312266114#2_0" departPos="5.10" departSpeed="5.96" departDelay="2.00" arrival="297.00" arrivalLane="-132608092#2_0" arrivalPos="41.72" arrivalSpeed="10.90" duration="115.00" routeLength="1019.22" waitingTime="7.00" waitingCount="2" stopTime="0.00" timeLoss="23.40" rerouteNo="0" devices="tripinfo_f7_h0.2" vType="car_town" speedFactor="0.82" vaporized=""/>
    <tripinfo id="f6_h0.0" depart="4.00" departLane="-1018306737_0" departPos="5.10" departSpeed="3.73" departDelay="4.00" arrival="308.00" arrivalLane="-132608092#2_0" arrivalPos="41.72" arrivalSpeed="13.33" duration="304.00" routeLength="3000.13" waitingTime="39.00" waitingCount="4" stopTime="0.00" timeLoss="97.85" rerouteNo="0" devices="tripinfo_f6_h0.0" vType="car_town" speedFactor="1.03" vaporized=""/>
    <tripinfo id="f2_h0.2" depart="181.00" departLane="-312266114#2_0" departPos="5.10" departSpeed="10.11" departDelay="1.00" arrival="361.00" arrivalLane="903454651_0" arrivalPos="299.86" arrivalSpeed="13.66" duration="180.00" routeLength="1944.89" waitingTime="9.00" waitingCount="3" stopTime="0.00" timeLoss="36.45" rerouteNo="0" devices="tripinfo_f2_h0.2" vType="car_town" speedFactor="0.99" vaporized=""/>
    <tripinfo id="f3_h0.1" depart="240.00" departLane="-1018306737_0" departPos="5.10" departSpeed="16.16" departDelay="0.00" arrival="363.00" arrivalLane="-132608092#2_0" arrivalPos="41.72" arrivalSpeed="13.40" duration="123.00" routeLength="1400.42" waitingTime="11.00" waitingCount="2" stopTime="0.00" timeLoss="33.91" rerouteNo="0" devices="tripinfo_f3_h0.1" vType="car_town" speedFactor="1.16" vaporized=""/>
    <tripinfo id="f1_h0.2" depart="180.00" departLane="-312266114#2_0" departPos="5.10" departSpeed="13.91" departDelay="0.00" arrival="364.00" arrivalLane="903454651_0" arrivalPos="299.86" arrivalSpeed="13.87" duration="184.00" routeLength="2097.64" waitingTime="5.00" waitingCount="1" stopTime="0.00" timeLoss="31.39" rerouteNo="0" devices="tripinfo_f1_h0.2" vType="car_town" speedFactor="1.00" vaporized=""/>
    <tripinfo id="f7_h0.3" depart="272.00" departLane="-312266114#2_0" departPos="5.10" departSpeed="5.01" departDelay="2.00" arrival="388.00" arrivalLane="-132608092#2_0" arrivalPos="41.72" arrivalSpeed="13.15" duration="116.00" routeLength="1019.22" waitingTime="23.00" waitingCount="3" stopTime="0.00" timeLoss="56.05" rerouteNo="0" devices="tripinfo_f7_h0.3" vType="car_town" speedFactor="1.24" vaporized=""/>
    <tripinfo id="f4_h0.1" depart="241.00" departLane="-1018306737_0" departPos="5.10" departSpeed="13.00" departDelay="1.00" arrival="397.00" arrivalLane="104746990#0_0" arrivalPos="130.67" arrivalSpeed="12.82" duration="156.00" routeLength="1830.41" waitingTime="0.00" waitingCount="0" stopTime="0.00" timeLoss="20.94" rerouteNo="0" devices="tripinfo_f4_h0.1" vType="car_town" speedFactor="0.94" vaporized=""/>
    <tripinfo id="f2_h0.3" depart="271.00" departLane="-312266114#2_0" departPos="5.10" departSpeed="8.89" departDelay="1.00" arrival="448.00" arrivalLane="903454651_0" arrivalPos="299.86" arrivalSpeed="13.20" duration="177.00" routeLength="1944.89" waitingTime="10.00" waitingCount="1" stopTime="0.00" timeLoss="34.76" rerouteNo="0" devices="tripinfo_f2_h0.3" vType="car_town" speedFactor="1.00" vaporized=""/>
    <tripinfo id="f7_h0.4" depart="364.00" departLane="-312266114#2_0" departPos="5.10" departSpeed="13.44" departDelay="4.00" arrival="478.00" arrivalLane="-132608092#2_0" arrivalPos="41.72" arrivalSpeed="13.41" duration="114.00" routeLength="1019.22" waitingTime="15.00" waitingCount="3" stopTime="0.00" timeLoss="42.88" rerouteNo="0" devices="tripinfo_f7_h0.4" vType="car_town" speedFactor="1.05" vaporized=""/>
    <tripinfo id="f1_h0.3" depart="270.00" departLane="-312266114#2_0" departPos="5.10" departSpeed="12.18" departDelay="0.00" arrival="490.00" arrivalLane="903454651_0" arrivalPos="299.86" arrivalSpeed="11.47" duration="220.00" routeLength="2097.64" waitingTime="16.00" waitingCount="3" stopTime="0.00" timeLoss="44.99" rerouteNo="0" devices="tripinfo_f1_h0.3" vType="car_town" speedFactor="0.88" vaporized=""/>
    <tripinfo id="f5_h0.1" depart="242.00" departLane="-1018306737_0" departPos="5.10" departSpeed="10.10" departDelay="2.00" arrival="492.00" arrivalLane="104746990#0_0" arrivalPos="130.67" arrivalSpeed="12.91" duration="250.00" routeLength="2760.46" waitingTime="7.00" waitingCount="2" stopTime="0.00" timeLoss="42.92" rerouteNo="0" devices="tripinfo_f5_h0.1" vType="car_town" speedFactor="0.99" vaporized=""/>
    <tripinfo id="f6_h0.1" depart="244.00" departLane="-1018306737_0" departPos="5.10" departSpeed="10.29" departDelay="4.00" arrival="517.00" arrivalLane="-132608092#2_0" arrivalPos="41.72" arrivalSpeed="15.33" duration="273.00" routeLength="3000.13" waitingTime="23.00" waitingCount="3" stopTime="0.00" timeLoss="85.35" rerouteNo="0" devices="tripinfo_f6_h0.1" vType="car_town" speedFactor="1.13" vaporized=""/>
    <tripinfo id="f1_h0.4" depart="361.00" departLane="-312266114#2_0" departPos="5.10" departSpeed="15.22" departDelay="1.00" arrival="539.00" arrivalLane="903454651_0" arrivalPos="299.86" arrivalSpeed="14.37" duration="178.00" routeLength="2097.64" waitingTime="8.00" waitingCount="2" stopTime="0.00" timeLoss="38.45" rerouteNo="0" devices="tripinfo_f1_h0.4" vType="car_town" speedFactor="1.10" vaporized=""/>
    <tripinfo id="f7_h0.5" depart="452.00" departLane="-312266114#2_0" departPos="5.10" departSpeed="10.61" departDelay="2.00" arrival="546.00" arrivalLane="-132608092#2_0" arrivalPos="41.72" arrivalSpeed="14.13" duration="94.00" routeLength="1019.22" waitingTime="4.00" waitingCount="1" stopTime="0.00" timeLoss="24.96" rerouteNo="0" devices="tripinfo_f7_h0.5" vType="car_town" speedFactor="1.08" vaporized=""/>
    <tripinfo id="f2_h0.4" depart="362.00" departLane="-312266114#2_0" departPos="5.10" departSpeed="12.14" departDelay="2.00" arrival="557.00" arrivalLane="903454651_0" arrivalPos="299.86" arrivalSpeed="11.19" duration="195.00" routeLength="1944.89" waitingTime="9.00" waitingCount="2" stopTime="0.00" timeLoss="31.48" rerouteNo="0" devices="tripinfo_f2_h0.4" vType="car_town" speedFactor="0.87" vaporized=""/>
    <tripinfo id="f2_h0.5" depart="451.00" departLane="-312266114#2_0" departPos="5.10" departSpeed="13.32" departDelay="1.00" arrival="626.00" arrivalLane="903454651_0" arrivalPos="299.86" arrivalSpeed="12.71" duration="175.00" routeLength="1944.89" waitingTime="6.00" waitingCount="1" stopTime="0.00" timeLoss="28.31" rerouteNo="0" devices="tripinfo_f2_h0.5" vType="car_town" speedFactor="0.97" vaporized=""/>
    <tripinfo id="f1_h0.5" depart="450.00" departLane="-312266114#2_0" departPos="5.10" departSpeed="15.57" departDelay="0.00" arrival="629.00" arrivalLane="903454651_0" arrivalPos="299.86" arrivalSpeed="15.32" duration="179.00" routeLength="2097.64" waitingTime="10.00" waitingCount="3" stopTime="0.00" timeLoss="42.60" rerouteNo="0" devices="tripinfo_f1_h0.5" vType="car_town" speedFactor="1.12" vaporized=""/>
    <tripinfo id="f3_h0.2" depart="480.00" departLane="-1018306737_0" departPos="5.10" departSpeed="13.05" departDelay="0.00" arrival="633.00" arrivalLane="-132608092#2_0" arrivalPos="41.72" arrivalSpeed="12.42" duration="153.00" routeLength="1400.42" waitingTime="15.00" waitingCount="3" stopTime="0.00" timeLoss="42.13" rerouteNo="0" devices="tripinfo_f3_h0.2" vType="car_town" speedFactor="0.94" vaporized=""/>
    <tripinfo id="f7_h0.6" depart="542.00" departLane="-312266114#2_0" departPos="5.10" departSpeed="4.88" departDelay="2.00" arrival="657.00" arrivalLane="-132608092#2_0" arrivalPos="41.72" arrivalSpeed="10.93" duration="115.00" routeLength="1019.22" waitingTime="5.00" waitingCount="1" stopTime="0.00" timeLoss="24.22" rerouteNo="0" devices="tripinfo_f7_h0.6" vType="car_town" speedFactor="0.82" vaporized=""/>
    <tripinfo id="f4_h0.2" depart="481.00" departLane="-1018306737_0" departPos="5.10" departSpeed="9.53" departDelay="1.00" arrival="676.00" arrivalLane="104746990#0_0" arrivalPos="130.67" arrivalSpeed="11.98" duration="195.00" routeLength="1830.41" waitingTime="19.00" waitingCount="4" stopTime="0.00" timeLoss="55.81" rerouteNo="0" devices="tripinfo_f4_h0.2" vType="car_town" speedFactor="0.91" vaporized=""/>
    <tripinfo id="f2_h0.6" depart="541.00" departLane="-312266114#2_0" departPos="5.10" departSpeed="9.35" departDelay="1.00" arrival="701.00" arrivalLane="903454651_0" arrivalPos="299.86" arrivalSpeed="14.70" duration="160.00" routeLength="1944.89" waitingTime="3.00" waitingCount="2" stopTime="0.00" timeLoss="27.94" rerouteNo="0" devices="tripinfo_f2_h0.6" vType="car_town" speedFactor="1.08" vaporized=""/>
    <tripinfo id="f7_h0.7" depart="632.00" departLane="-312266114#2_0" departPos="5.10" departSpeed="6.47" departDelay="2.00" arrival="733.00" arrivalLane="-132608092#2_0" arrivalPos="41.72" arrivalSpeed="15.28" duration="101.00" routeLength="1019.22" waitingTime="11.00" waitingCount="2" stopTime="0.00" timeLoss="35.95" rerouteNo="0" devices="tripinfo_f7_h0.7" vType="car_town" speedFactor="1.15" vaporized=""/>
    <tripinfo id="f1_h0.6" depart="540.00" departLane="-312266114#2_0" departPos="5.10" departSpeed="13.09" departDelay="0.00" arrival="742.00" arrivalLane="903454651_0" arrivalPos="299.86" arrivalSpeed="12.73" duration="202.00" routeLength="2097.64" waitingTime="11.00" waitingCount="2" stopTime="0.00" timeLoss="38.23" rerouteNo="0" devices="tripinfo_f1_h0.6" vType="car_town" speedFactor="0.94" vaporized=""/>
    <tripinfo id="f5_h0.2" depart="482.00" departLane="-1018306737_0" departPos="5.10" departSpeed="4.67" departDelay="2.00" arrival="747.00" arrivalLane="104746990#0_0" arrivalPos="130.67" arrivalSpeed="13.43" duration="265.00" routeLength="2760.46" waitingTime="16.00" waitingCount="3" stopTime="0.00" timeLoss="59.56" rerouteNo="0" devices="tripinfo_f5_h0.2" vType="car_town" speedFactor="1.00" vaporized=""/>
    <tripinfo id="f6_h0.2" depart="484.00" departLane="-1018306737_0" departPos="5.10" departSpeed="5.12" departDelay="4.00" arrival="762.00" arrivalLane="-132608092#2_0" arrivalPos="41.72" arrivalSpeed="14.02" duration="278.00" routeLength="3000.13" waitingTime="20.00" waitingCount="4" stopTime="0.00" timeLoss="80.81" rerouteNo="0" devices="tripinfo_f6_h0.2" vType="car_town" speedFactor="1.08" vaporized=""/>
    <tripinfo id="f2_h0.7" depart="631.00" departLane="-312266114#2_0" departPos="5.10" departSpeed="11.04" departDelay="1.00" arrival="789.00" arrivalLane="903454651_0" arrivalPos="299.86" arrivalSpeed="15.09" duration="158.00" routeLength="1944.89" waitingTime="10.00" waitingCount="2" stopTime="0.00" timeLoss="33.91" rerouteNo="0" devices="tripinfo_f2_h0.7" vType="car_town" speedFactor="1.15" vaporized=""/>
    <tripinfo id="f1_h0.7" depart="630.00" departLane="-312266114#2_0" departPos="5.10" departSpeed="14.03" departDelay="0.00" arrival="835.00" arrivalLane="903454651_0" arrivalPos="299.86" arrivalSpeed="13.36" duration="205.00" routeLength="2097.64" waitingTime="20.00" waitingCount="3" stopTime="0.00" timeLoss="52.99" rerouteNo="0" devices="tripinfo_f1_h0.7" vType="car_town" speedFactor="1.01" vaporized=""/>
    <tripinfo id="f7_h0.8" depart="722.00" departLane="-312266114#2_0" departPos="5.10" departSpeed="9.13" departDelay="2.00" arrival="838.00" arrivalLane="-132608092#2_0" arrivalPos="41.72" arrivalSpeed="14.47" duration="116.00" routeLength="1019.22" waitingTime="20.00" waitingCount="4" stopTime="0.00" timeLoss="44.92" rerouteNo="0" devices="tripinfo_f7_h0.8" vType="car_town" speedFactor="1.06" vaporized=""/>
    <tripinfo id="f3_h0.3" depart="720.00" departLane="-1018306737_0" departPos="5.10" departSpeed="12.73" departDelay="0.00" arrival="858.00" arrivalLane="-132608092#2_0" arrivalPos="41.72" arrivalSpeed="12.16" duration="138.00" routeLength="1400.42" waitingTime="4.00" waitingCount="1" stopTime="0.00" timeLoss="24.41" rerouteNo="0" devices="tripinfo_f3_h0.3" vType="car_town" speedFactor="0.92" vaporized=""/>
    <tripinfo id="f2_h0.8" depart="721.00" departLane="-312266114#2_0" departPos="5.10" departSpeed="12.19" departDelay="1.00" arrival="882.00" arrivalLane="903454651_0" arrivalPos="299.86" arrivalSpeed="14.33" duration="161.00" routeLength="1944.89" waitingTime="4.00" waitingCount="1" stopTime="0.00" timeLoss="26.69" rerouteNo="0" devices="tripinfo_f2_h0.8" vType="car_town" speedFactor="1.07" vaporized=""/>
    <tripinfo id="f4_h0.3" depart="721.00" departLane="-1018306737_0" departPos="5.10" departSpeed="9.56" departDelay="1.00" arrival="895.00" arrivalLane="104746990#0_0" arrivalPos="130.67" arrivalSpeed="11.61" duration="174.00" routeLength="1830.41" waitingTime="0.00" waitingCount="0" stopTime="0.00" timeLoss="26.61" rerouteNo="0" devices="tripinfo_f4_h0.3" vType="car_town" speedFactor="0.86" vaporized=""/>
    <tripinfo id="f1_h0.8" depart="720.00" departLane="-312266114#2_0" departPos="5.10" departSpeed="14.75" departDelay="0.00" arrival="904.00" arrivalLane="903454651_0" arrivalPos="299.86" arrivalSpeed="14.44" duration="184.00" routeLength="2097.64" waitingTime="6.00" waitingCount="1" stopTime="0.00" timeLoss="39.18" rerouteNo="0" devices="tripinfo_f1_h0.8" vType="car_town" speedFactor="1.06" vaporized=""/>
    <tripinfo id="f7_h0.9" depart="812.00" departLane="-312266114#2_0" departPos="5.10" departSpeed="3.48" departDelay="2.00" arrival="928.00" arrivalLane="-132608092#2_0" arrivalPos="41.72" arrivalSpeed="13.32" duration="116.00" routeLength="1019.22" waitingTime="14.00" waitingCount="2" stopTime="0.00" timeLoss="40.79" rerouteNo="0" devices="tripinfo_f7_h0.9" vType="car_town" speedFactor="0.99" vaporized=""/>
    <tripinfo id="f2_h0.9" depart="811.00" departLane="-312266114#2_0" departPos="5.10" departSpeed="8.26" departDelay="1.00" arrival="984.00" arrivalLane="903454651_0" arrivalPos="299.86" arrivalSpeed="14.43" duration="173.00" routeLength="1944.89" waitingTime="10.00" waitingCount="2" stopTime="0.00" timeLoss="45.28" rerouteNo="0" devices="tripinfo_f2_h0.9" vType="car_town" speedFactor="1.12" vaporized=""/>
    <tripinfo id="f5_h0.3" depart="722.00" departLane="-1018306737_0" departPos="5.10" departSpeed="4.65" departDelay="2.00" arrival="1007.00" arrivalLane="104746990#0_0" arrivalPos="130.67" arrivalSpeed="12.82" duration="285.00" routeLength="2760.46" waitingTime="17.00" waitingCount="3" stopTime="0.00" timeLoss="70.98" rerouteNo="0" devices="tripinfo_f5_h0.3" vType="car_town" speedFactor="0.95" vaporized=""/>
    <tripinfo id="f7_h0.10" depart="904.00" departLane="-312266114#2_0" departPos="5.10" departSpeed="12.64" departDelay="4.00" arrival="1018.00" arrivalLane="-132608092#2_0" arrivalPos="41.72" arrivalSpeed="12.66" duration="114.00" routeLength="1019.22" waitingTime="11.00" waitingCount="2" stopTime="0.00" timeLoss="33.43" rerouteNo="0" devices="tripinfo_f7_h0.10" vType="car_town" speedFactor="0.92" vaporized=""/>
    <tripinfo id="f1_h0.9" depart="810.00" departLane="-312266114#2_0" departPos="5.10" departSpeed="11.49" departDelay="0.00" arrival="1033.00" arrivalLane="903454651_0" arrivalPos="299.86" arrivalSpeed="11.48" duration="223.00" routeLength="2097.64" waitingTime="10.00" waitingCount="3" stopTime="0.00" timeLoss="38.25" rerouteNo="0" devices="tripinfo_f1_h0.9" vType="car_town" speedFactor="0.83" vaporized=""/>
    <tripinfo id="f6_h0.3" depart="724.00" departLane="-1018306737_0" departPos="5.10" departSpeed="3.71" departDelay="4.00" arrival="1048.00" arrivalLane="-132608092#2_0" arrivalPos="41.72" arrivalSpeed="11.94" duration="324.00" routeLength="3000.13" waitingTime="34.00" waitingCount="5" stopTime="0.00" timeLoss="97.85" rerouteNo="0" devices="tripinfo_f6_h0.3" vType="car_town" speedFactor="0.94" vaporized=""/>
    <tripinfo id="f2_h0.10" depart="901.00" departLane="-312266114#2_0" departPos="5.10" departSpeed="7.74" departDelay="1.00" arrival="1067.00" arrivalLane="903454651_0" arrivalPos="299.86" arrivalSpeed="13.40" duration="166.00" routeLength="1944.89" waitingTime="4.00" waitingCount="1" stopTime="0.00" timeLoss="28.43" rerouteNo="0" devices="tripinfo_f2_h0.10" vType="car_town" speedFactor="1.03" vaporized=""/>
    <tripinfo id="f7_h0.11" depart="992.00" departLane="-312266114#2_0" departPos="5.10" departSpeed="7.65" departDelay="2.00" arrival="1098.00" arrivalLane="-132608092#2_0" arrivalPos="41.72" arrivalSpeed="13.16" duration="106.00" routeLength="1019.22" waitingTime="16.00" waitingCount="3" stopTime="0.00" timeLoss="36.19" rerouteNo="0" devices="tripinfo_f7_h0.11" vType="car_town" speedFactor="1.07" vaporized=""/>
    <tripinfo id="f3_h0.4" depart="960.00" departLane="-1018306737_0" departPos="5.10" departSpeed="14.49" departDelay="0.00" arrival="1100.00" arrivalLane="-132608092#2_0" arrivalPos="41.72" arrivalSpeed="13.55" duration="140.00" routeLength="1400.42" waitingTime="11.00" waitingCount="1" stopTime="0.00" timeLoss="39.70" rerouteNo="0" devices="tripinfo_f3_h0.4" vType="car_town" speedFactor="1.04" vaporized=""/>
    <tripinfo id="f4_h0.4" depart="961.00" departLane="-1018306737_0" departPos="5.10" departSpeed="10.71" departDelay="1.00" arrival="1135.00" arrivalLane="104746990#0_0" arrivalPos="130.67" arrivalSpeed="13.01" duration="174.00" routeLength="1830.41" waitingTime="8.00" waitingCount="1" stopTime="0.00" timeLoss="50.18" rerouteNo="0" devices="tripinfo_f4_h0.4" vType="car_town" speedFactor="1.02" vaporized=""/>
    <tripinfo id="f1_h0.10" depart="900.00" departLane="-312266114#2_0" departPos="5.10" departSpeed="11.77" departDelay="0.00" arrival="1150.00" arrivalLane="903454651_0" arrivalPos="299.86" arrivalSpeed="11.57" duration="250.00" routeLength="2097.64" waitingTime="21.00" waitingCount="6" stopTime="0.00" timeLoss="68.75" rerouteNo="0" devices="tripinfo_f1_h0.10" vType="car_town" speedFactor="0.85" vaporized=""/>
    <tripinfo id="f2_h0.11" depart="991.00" departLane="-312266114#2_0" departPos="5.10" departSpeed="11.05" departDelay="1.00" arrival="1152.00" arrivalLane="903454651_0" arrivalPos="299.86" arrivalSpeed="14.87" duration="161.00" routeLength="1944.89" waitingTime="5.00" waitingCount="1" stopTime="0.00" timeLoss="31.11" rerouteNo="0" devices="tripinfo_f2_h0.11" vType="car_town" speedFactor="1.10" vaporized=""/>
    <tripinfo id="f7_h0.12" depart="1082.00" departLane="-312266114#2_0" departPos="5.10" departSpeed="8.21" departDelay="2.00" arrival="1162.00" arrivalLane="-132608092#2_0" arrivalPos="41.72" arrivalSpeed="15.94" duration="80.00" routeLength="1019.22" waitingTime="0.00" waitingCount="0" stopTime="0.00" timeLoss="18.84" rerouteNo="0" devices="tripinfo_f7_h0.12" vType="car_town" speedFactor="1.21" vaporized=""/>
    <tripinfo id="f1_h0.11" depart="990.00" departLane="-312266114#2_0" departPos="5.10" departSpeed="14.63" departDelay="0.00" arrival="1163.00" arrivalLane="903454651_0" arrivalPos="299.86" arrivalSpeed="13.84" duration="173.00" routeLength="2097.64" waitingTime="6.00" waitingCount="1" stopTime="0.00" timeLoss="27.25" rerouteNo="0" devices="tripinfo_f1_h0.11" vType="car_town" speedFactor="1.05" vaporized=""/>
    <tripinfo id="f5_h0.4" depart="962.00" departLane="-1018306737_0" departPos="5.10" departSpeed="7.01" departDelay="2.00" arrival="1205.00" arrivalLane="104746990#0_0" arrivalPos="130.67" arrivalSpeed="14.64" duration="243.00" routeLength="2760.46" waitingTime="16.00" waitingCount="3" stopTime="0.00" timeLoss="62.06" rerouteNo="0" devices="tripinfo_f5_h0.4" vType="car_town" speedFactor="1.14" vaporized=""/>
    <tripinfo id="f6_h0.4" depart="964.00" departLane="-1018306737_0" departPos="5.10" departSpeed="7.69" departDelay="4.00" arrival="1268.00" arrivalLane="-132608092#2_0" arrivalPos="41.72" arrivalSpeed="11.38" duration="304.00" routeLength="3000.13" waitingTime="19.00" waitingCount="4" stopTime="0.00" timeLoss="69.91" rerouteNo="0" devices="tripinfo_f6_h0.4" vType="car_town" speedFactor="0.91" vaporized=""/>
    <tripinfo id="f2_h0.12" depart="1081.00" departLane="-312266114#2_0" departPos="5.10" departSpeed="12.11" departDelay="1.00" arrival="1272.00" arrivalLane="903454651_0" arrivalPos="299.86" arrivalSpeed="11.92" duration="191.00" routeLength="1944.89" waitingTime="10.00" waitingCount="1" stopTime="0.00" timeLoss="27.35" rerouteNo="0" devices="tripinfo_f2_h0.12" vType="car_town" speedFactor="0.87" vaporized=""/>
    <tripinfo id="f1_h0.12" depart="1080.00" departLane="-312266114#2_0" departPos="5.10" departSpeed="15.79" departDelay="0.00" arrival="1274.00" arrivalLane="903454651_0" arrivalPos="299.86" arrivalSpeed="14.40" duration="194.00" routeLength="2097.64" waitingTime="18.00" waitingCount="4" stopTime="0.00" timeLoss="58.42" rerouteNo="0" devices="tripinfo_f1_h0.12" vType="car_town" speedFactor="1.14" vaporized=""/>
    <tripinfo id="f7_h0.13" depart="1172.00" departLane="-312266114#2_0" departPos="5.10" departSpeed="5.68" departDelay="2.00" arrival="1278.00" arrivalLane="-132608092#2_0" arrivalPos="41.72" arrivalSpeed="11.03" duration="106.00" routeLength="1019.22" waitingTime="7.00" waitingCount="1" stopTime="0.00" timeLoss="21.38" rerouteNo="0" devices="tripinfo_f7_h0.13" vType="car_town" speedFactor="0.88" vaporized=""/>
    <tripinfo id="f3_h0.5" depart="1200.00" departLane="-1018306737_0" departPos="5.10" departSpeed="12.17" departDelay="0.00" arrival="1340.00" arrivalLane="-132608092#2_0" arrivalPos="41.72" arrivalSpeed="11.75" duration="140.00" routeLength="1400.42" waitingTime="3.00" waitingCount="1" stopTime="0.00" timeLoss="20.71" rerouteNo="0" devices="tripinfo_f3_h0.5" vType="car_town" speedFactor="0.88" vaporized=""/>
    <tripinfo id="f7_h0.14" depart="1262.00" departLane="-312266114#2_0" departPos="5.10" departSpeed="6.21" departDelay="2.00" arrival="1356.00" arrivalLane="-132608092#2_0" arrivalPos="41.72" arrivalSpeed="14.26" duration="94.00" routeLength="1019.22" waitingTime="3.00" waitingCount="1" stopTime="0.00" timeLoss="26.26" rerouteNo="0" devices="tripinfo_f7_h0.14" vType="car_town" speedFactor="1.09" vaporized=""/>
    <tripinfo id="f2_h0.13" depart="1171.00" departLane="-312266114#2_0" departPos="5.10" departSpeed="9.71" departDelay="1.00" arrival="1357.00" arrivalLane="903454651_0" arrivalPos="299.86" arrivalSpeed="12.20" duration="186.00" routeLength="1944.89" waitingTime="13.00" waitingCount="2" stopTime="0.00" timeLoss="34.26" rerouteNo="0" devices="tripinfo_f2_h0.13" vType="car_town" speedFactor="0.94" vaporized=""/>
    <tripinfo id="f1_h0.13" depart="1170.00" departLane="-312266114#2_0" departPos="5.10" departSpeed="13.50" departDelay="0.00" arrival="1367.00" arrivalLane="903454651_0" arrivalPos="299.86" arrivalSpeed="12.36" duration="197.00" routeLength="2097.64" waitingTime="12.00" waitingCount="2" stopTime="0.00" timeLoss="39.30" rerouteNo="0" devices="tripinfo_f1_h0.13" vType="car_town" speedFactor="0.97" vaporized=""/>
    <tripinfo id="f4_h0.5" depart="1201.00" departLane="-1018306737_0" departPos="5.10" departSpeed="9.10" departDelay="1.00" arrival="1375.00" arrivalLane="104746990#0_0" arrivalPos="130.67" arrivalSpeed="15.05" duration="174.00" routeLength="1830.41" waitingTime="4.00" waitingCount="2" stopTime="0.00" timeLoss="64.41" rerouteNo="0" devices="tripinfo_f4_h0.5" vType="car_town" speedFactor="1.16" vaporized=""/>
    <tripinfo id="f2_h0.14" depart="1261.00" departLane="-312266114#2_0" departPos="5.10" departSpeed="9.86" departDelay="1.00" arrival="1432.00" arrivalLane="903454651_0" arrivalPos="299.86" arrivalSpeed="14.03" duration="171.00" routeLength="1944.89" waitingTime="10.00" waitingCount="2" stopTime="0.00" timeLoss="35.40" rerouteNo="0" devices="tripinfo_f2_h0.14" vType="car_town" speedFactor="1.05" vaporized=""/>
    <tripinfo id="f5_h0.5" depart="1205.00" departLane="-1018306737_0" departPos="5.10" departSpeed="15.05" departDelay="5.00" arrival="1444.00" arrivalLane="104746990#0_0" arrivalPos="130.67" arrivalSpeed="13.83" duration="239.00" routeLength="2760.46" waitingTime="7.00" waitingCount="1" stopTime="0.00" timeLoss="50.17" rerouteNo="0" devices="tripinfo_f5_h0.5" vType="car_town" speedFactor="1.08" vaporized=""/>